
     Program PWSCF v.7.5 starts on 30Jun2026 at 18: 8:25 

     This program is part of the open-source Quantum ESPRESSO suite
     for quantum simulation of materials; please cite
         "P. Giannozzi et al., J. Phys.:Condens. Matter 21 395502 (2009);
         "P. Giannozzi et al., J. Phys.:Condens. Matter 29 465901 (2017);
         "P. Giannozzi et al., J. Chem. Phys. 152 154105 (2020);
          URL http://www.quantum-espresso.org", 
     in publications or presentations arising from this work. More details at
     http://www.quantum-espresso.org/quote

     Parallel version (MPI & OpenMP), running on      64 processor cores
     Number of MPI processes:                64
     Threads/MPI process:                     1

     MPI processes distributed on     1 nodes
     218104 MiB available memory on the printing compute node when the environment starts
 
     Waiting for input...
     Reading input from standard input

     Current dimensions of program PWSCF are:
     Max number of different atomic species (ntypx) = 10
     Max number of k-points (npk) =  40000
     Max angular momentum in pseudopotentials (lmaxx) =  4

     gamma-point specific algorithms are used
     Message from routine setup:
     using ibrav=0 with symmetry is DISCOURAGED, use correct ibrav instead
 
     K-points division:     npool     =       2
     R & G space division:  proc/nbgrp/npool/nimage =      32
     Subspace diagonalization in iterative solution of the eigenvalue problem:
     a serial algorithm will be used

 
     Parallelization info
     --------------------
     sticks:   dense  smooth     PW     G-vecs:    dense   smooth      PW
     Min         271     271     67                19144    19144    2399
     Max         274     274     70                19154    19154    2406
     Sum        8717    8717   2185               612733   612733   76813
 
     Using Slab Decomposition
 


     bravais-lattice index     =            0
     lattice parameter (alat)  =      16.5537  a.u.
     unit-cell volume          =    4536.1018 (a.u.)^3
     number of atoms/cell      =           62
     number of atomic types    =            2
     number of electrons       =       248.00 (up: 125.00, down: 123.00)
     number of Kohn-Sham states=          125
     kinetic-energy cutoff     =     100.0000  Ry
     charge density cutoff     =     400.0000  Ry
     scf convergence threshold =      1.0E-12
     mixing beta               =       0.1000
     number of iterations used =           12  local-TF  mixing
     energy convergence thresh.=      1.0E-04
     force convergence thresh. =      1.0E-03
     Exchange-correlation= PBE
                           (   1   4   3   4   0   0   0)
     nstep                     =           50


     celldm(1)=  16.553669  celldm(2)=   0.000000  celldm(3)=   0.000000
     celldm(4)=   0.000000  celldm(5)=   0.000000  celldm(6)=   0.000000

     crystal axes: (cart. coord. in units of alat)
               a(1) = (   1.000000   0.000000   0.000000 )  
               a(2) = (   0.000000   1.000000   0.000000 )  
               a(3) = (   0.000000   0.000000   1.000000 )  

     reciprocal axes: (cart. coord. in units 2 pi/alat)
               b(1) = (  1.000000  0.000000  0.000000 )  
               b(2) = (  0.000000  1.000000  0.000000 )  
               b(3) = (  0.000000  0.000000  1.000000 )  


     PseudoPot. # 1 for Si read from file:
     /home/k0010/k001044/src/qe_pseudo/pseudodojo/Si.upf
     MD5 check sum: 3f156eda2279325da2083dedf8f436a5
     Pseudo is Norm-conserving + core correction, Zval =  4.0
     Generated using ONCVPSP code by D. R. Hamann
     Using radial grid of 1510 points,  6 beta functions with: 
                l(1) =   0
                l(2) =   0
                l(3) =   1
                l(4) =   1
                l(5) =   2
                l(6) =   2

     PseudoPot. # 2 for C  read from file:
     /home/k0010/k001044/src/qe_pseudo/pseudodojo/C.upf
     MD5 check sum: 34a24e64c0a39f27c6c36b90a16ac686
     Pseudo is Norm-conserving + core correction, Zval =  4.0
     Generated using ONCVPSP code by D. R. Hamann
     Using radial grid of 1248 points,  4 beta functions with: 
                l(1) =   0
                l(2) =   0
                l(3) =   1
                l(4) =   1

     atomic species   valence    mass     pseudopotential
     Si                4.00    28.08500     Si( 1.00)
     C                 4.00    12.01100     C ( 1.00)

     Starting magnetic structure 
     atomic species   magnetization
     Si              0.000
     C               0.000

      2 Sym. Ops. (no inversion) found



   Cartesian axes

     site n.     atom                  positions (alat units)
         1        Si     tau(   1) = (   0.0000000   0.0000000   0.5000000  )
         2        Si     tau(   2) = (   0.0000000   0.5000000   0.0000000  )
         3        Si     tau(   3) = (   0.0000000   0.5000000   0.5000000  )
         4        Si     tau(   4) = (   0.5000000   0.0000000   0.0000000  )
         5        Si     tau(   5) = (   0.5000000   0.0000000   0.5000000  )
         6        Si     tau(   6) = (   0.5000000   0.5000000   0.0000000  )
         7        Si     tau(   7) = (   0.5000000   0.5000000   0.5000000  )
         8        Si     tau(   8) = (   0.0000000   0.2500000   0.2500000  )
         9        Si     tau(   9) = (   0.0000000   0.2500000   0.7500000  )
        10        Si     tau(  10) = (   0.0000000   0.7500000   0.2500000  )
        11        Si     tau(  11) = (   0.0000000   0.7500000   0.7500000  )
        12        Si     tau(  12) = (   0.5000000   0.2500000   0.2500000  )
        13        Si     tau(  13) = (   0.5000000   0.2500000   0.7500000  )
        14        Si     tau(  14) = (   0.5000000   0.7500000   0.2500000  )
        15        Si     tau(  15) = (   0.5000000   0.7500000   0.7500000  )
        16        Si     tau(  16) = (   0.2500000   0.0000000   0.2500000  )
        17        Si     tau(  17) = (   0.2500000   0.0000000   0.7500000  )
        18        Si     tau(  18) = (   0.2500000   0.5000000   0.2500000  )
        19        Si     tau(  19) = (   0.2500000   0.5000000   0.7500000  )
        20        Si     tau(  20) = (   0.7500000   0.0000000   0.2500000  )
        21        Si     tau(  21) = (   0.7500000   0.0000000   0.7500000  )
        22        Si     tau(  22) = (   0.7500000   0.5000000   0.2500000  )
        23        Si     tau(  23) = (   0.7500000   0.5000000   0.7500000  )
        24        Si     tau(  24) = (   0.2500000   0.2500000   0.0000000  )
        25        Si     tau(  25) = (   0.2500000   0.2500000   0.5000000  )
        26        Si     tau(  26) = (   0.2500000   0.7500000   0.0000000  )
        27        Si     tau(  27) = (   0.2500000   0.7500000   0.5000000  )
        28        Si     tau(  28) = (   0.7500000   0.2500000   0.0000000  )
        29        Si     tau(  29) = (   0.7500000   0.2500000   0.5000000  )
        30        Si     tau(  30) = (   0.7500000   0.7500000   0.0000000  )
        31        Si     tau(  31) = (   0.7500000   0.7500000   0.5000000  )
        32        C      tau(  32) = (   0.1250000   0.1250000   0.8750000  )
        33        C      tau(  33) = (   0.1250000   0.6250000   0.3750000  )
        34        C      tau(  34) = (   0.1250000   0.6250000   0.8750000  )
        35        C      tau(  35) = (   0.6250000   0.1250000   0.3750000  )
        36        C      tau(  36) = (   0.6250000   0.1250000   0.8750000  )
        37        C      tau(  37) = (   0.6250000   0.6250000   0.3750000  )
        38        C      tau(  38) = (   0.6250000   0.6250000   0.8750000  )
        39        C      tau(  39) = (   0.1250000   0.3750000   0.1250000  )
        40        C      tau(  40) = (   0.1250000   0.3750000   0.6250000  )
        41        C      tau(  41) = (   0.1250000   0.8750000   0.1250000  )
        42        C      tau(  42) = (   0.1250000   0.8750000   0.6250000  )
        43        C      tau(  43) = (   0.6250000   0.3750000   0.1250000  )
        44        C      tau(  44) = (   0.6250000   0.3750000   0.6250000  )
        45        C      tau(  45) = (   0.6250000   0.8750000   0.1250000  )
        46        C      tau(  46) = (   0.6250000   0.8750000   0.6250000  )
        47        C      tau(  47) = (   0.3750000   0.1250000   0.1250000  )
        48        C      tau(  48) = (   0.3750000   0.1250000   0.6250000  )
        49        C      tau(  49) = (   0.3750000   0.6250000   0.1250000  )
        50        C      tau(  50) = (   0.3750000   0.6250000   0.6250000  )
        51        C      tau(  51) = (   0.8750000   0.1250000   0.1250000  )
        52        C      tau(  52) = (   0.8750000   0.1250000   0.6250000  )
        53        C      tau(  53) = (   0.8750000   0.6250000   0.1250000  )
        54        C      tau(  54) = (   0.8750000   0.6250000   0.6250000  )
        55        C      tau(  55) = (   0.3750000   0.3750000   0.3750000  )
        56        C      tau(  56) = (   0.3750000   0.3750000   0.8750000  )
        57        C      tau(  57) = (   0.3750000   0.8750000   0.3750000  )
        58        C      tau(  58) = (   0.3750000   0.8750000   0.8750000  )
        59        C      tau(  59) = (   0.8750000   0.3750000   0.3750000  )
        60        C      tau(  60) = (   0.8750000   0.3750000   0.8750000  )
        61        C      tau(  61) = (   0.8750000   0.8750000   0.3750000  )
        62        C      tau(  62) = (   0.8750000   0.8750000   0.8750000  )

     number of k points=     1
                       cart. coord. in units 2pi/alat
        k(    1) = (   0.0000000   0.0000000   0.0000000), wk =   1.0000000

     Dense  grid:   306367 G-vectors     FFT dimensions: ( 108, 108, 108)

     Estimated max dynamical RAM per process >      46.04 MB

     Estimated total dynamical RAM >       2.66 GB
     Generating pointlists ...
     new r_m :   0.0893 (alat units)  1.4784 (a.u.) for type    1
     new r_m :   0.0893 (alat units)  1.4784 (a.u.) for type    2

     Initial potential from superposition of free atoms

     starting charge     247.9796, renormalised to     248.0000
     Starting wfcs are  248 randomized atomic wfcs

     total cpu time spent up to now is        2.6 secs

     Self-consistent Calculation

     iteration #  1     ecut=   100.00 Ry     beta= 0.10
     Davidson diagonalization with overlap
     ethr =  1.00E-02,  avg # of iterations =  2.0

     total cpu time spent up to now is        3.5 secs

     total energy              =    -638.84915305 Ry
     estimated scf accuracy    <      13.59717512 Ry

     total magnetization       =     2.00 Bohr mag/cell
     absolute magnetization    =     2.00 Bohr mag/cell

     iteration #  2     ecut=   100.00 Ry     beta= 0.10
     Davidson diagonalization with overlap
     ethr =  5.48E-03,  avg # of iterations =  1.0

     total cpu time spent up to now is        4.2 secs

     total energy              =    -635.28867935 Ry
     estimated scf accuracy    <      11.59888075 Ry

     total magnetization       =     2.00 Bohr mag/cell
     absolute magnetization    =     2.00 Bohr mag/cell

     iteration #  3     ecut=   100.00 Ry     beta= 0.10
     Davidson diagonalization with overlap
     ethr =  4.68E-03,  avg # of iterations =  2.0

     total cpu time spent up to now is        4.8 secs

     total energy              =    -634.88711694 Ry
     estimated scf accuracy    <       2.65534010 Ry

     total magnetization       =     2.00 Bohr mag/cell
     absolute magnetization    =     2.08 Bohr mag/cell

     iteration #  4     ecut=   100.00 Ry     beta= 0.10
     Davidson diagonalization with overlap
     ethr =  1.07E-03,  avg # of iterations =  3.0

     total cpu time spent up to now is        5.6 secs

     total energy              =    -635.69480420 Ry
     estimated scf accuracy    <       0.52306798 Ry

     total magnetization       =     2.00 Bohr mag/cell
     absolute magnetization    =     2.22 Bohr mag/cell

     iteration #  5     ecut=   100.00 Ry     beta= 0.10
     Davidson diagonalization with overlap
     ethr =  2.11E-04,  avg # of iterations = 10.5

     total cpu time spent up to now is        6.5 secs

     total energy              =    -635.74064724 Ry
     estimated scf accuracy    <       0.31402967 Ry

     total magnetization       =     2.00 Bohr mag/cell
     absolute magnetization    =     3.47 Bohr mag/cell

     iteration #  6     ecut=   100.00 Ry     beta= 0.10
     Davidson diagonalization with overlap
     ethr =  1.27E-04,  avg # of iterations =  1.0

     total cpu time spent up to now is        7.0 secs

     total energy              =    -635.69462723 Ry
     estimated scf accuracy    <       0.27959622 Ry

     total magnetization       =     2.00 Bohr mag/cell
     absolute magnetization    =     3.44 Bohr mag/cell

     iteration #  7     ecut=   100.00 Ry     beta= 0.10
     Davidson diagonalization with overlap
     ethr =  1.13E-04,  avg # of iterations =  5.5

     total cpu time spent up to now is        7.8 secs

     total energy              =    -635.73910199 Ry
     estimated scf accuracy    <       0.12574981 Ry

     total magnetization       =     2.00 Bohr mag/cell
     absolute magnetization    =     2.90 Bohr mag/cell

     iteration #  8     ecut=   100.00 Ry     beta= 0.10
     Davidson diagonalization with overlap
     ethr =  5.07E-05,  avg # of iterations =  2.0

     total cpu time spent up to now is        8.4 secs

     total energy              =    -635.70819484 Ry
     estimated scf accuracy    <       0.09885385 Ry

     total magnetization       =     2.00 Bohr mag/cell
     absolute magnetization    =     3.01 Bohr mag/cell

     iteration #  9     ecut=   100.00 Ry     beta= 0.10
     Davidson diagonalization with overlap
     ethr =  3.99E-05,  avg # of iterations =  8.0

     total cpu time spent up to now is        9.3 secs

     total energy              =    -635.73612921 Ry
     estimated scf accuracy    <       0.02782957 Ry

     total magnetization       =     2.00 Bohr mag/cell
     absolute magnetization    =     3.63 Bohr mag/cell

     iteration # 10     ecut=   100.00 Ry     beta= 0.10
     Davidson diagonalization with overlap
     ethr =  1.12E-05,  avg # of iterations =  2.0

     total cpu time spent up to now is        9.9 secs

     total energy              =    -635.72524007 Ry
     estimated scf accuracy    <       0.03133844 Ry

     total magnetization       =     2.00 Bohr mag/cell
     absolute magnetization    =     3.64 Bohr mag/cell

     iteration # 11     ecut=   100.00 Ry     beta= 0.10
     Davidson diagonalization with overlap
     ethr =  1.12E-05,  avg # of iterations =  8.0

     total cpu time spent up to now is       10.8 secs

     total energy              =    -635.73018347 Ry
     estimated scf accuracy    <       0.00397646 Ry

     total magnetization       =     2.00 Bohr mag/cell
     absolute magnetization    =     3.60 Bohr mag/cell

     iteration # 12     ecut=   100.00 Ry     beta= 0.10
     Davidson diagonalization with overlap
     ethr =  1.60E-06,  avg # of iterations =  8.0

     total cpu time spent up to now is       11.6 secs

     total energy              =    -635.73024114 Ry
     estimated scf accuracy    <       0.00391597 Ry

     total magnetization       =     2.00 Bohr mag/cell
     absolute magnetization    =     3.63 Bohr mag/cell

     iteration # 13     ecut=   100.00 Ry     beta= 0.10
     Davidson diagonalization with overlap
     ethr =  1.58E-06,  avg # of iterations =  3.0

     total cpu time spent up to now is       12.2 secs

     total energy              =    -635.73024461 Ry
     estimated scf accuracy    <       0.00200312 Ry

     total magnetization       =     2.00 Bohr mag/cell
     absolute magnetization    =     3.64 Bohr mag/cell

     iteration # 14     ecut=   100.00 Ry     beta= 0.10
     Davidson diagonalization with overlap
     ethr =  8.08E-07,  avg # of iterations =  7.5

     total cpu time spent up to now is       12.9 secs

     total energy              =    -635.73036594 Ry
     estimated scf accuracy    <       0.00104286 Ry

     total magnetization       =     2.00 Bohr mag/cell
     absolute magnetization    =     3.64 Bohr mag/cell

     iteration # 15     ecut=   100.00 Ry     beta= 0.10
     Davidson diagonalization with overlap
     ethr =  4.21E-07,  avg # of iterations =  5.0

     total cpu time spent up to now is       13.6 secs

     total energy              =    -635.73045368 Ry
     estimated scf accuracy    <       0.00064573 Ry

     total magnetization       =     2.00 Bohr mag/cell
     absolute magnetization    =     3.65 Bohr mag/cell

     iteration # 16     ecut=   100.00 Ry     beta= 0.10
     Davidson diagonalization with overlap
     ethr =  2.60E-07,  avg # of iterations =  8.5

     total cpu time spent up to now is       14.4 secs

     total energy              =    -635.73054043 Ry
     estimated scf accuracy    <       0.00071160 Ry

     total magnetization       =     2.00 Bohr mag/cell
     absolute magnetization    =     3.67 Bohr mag/cell

     iteration # 17     ecut=   100.00 Ry     beta= 0.10
     Davidson diagonalization with overlap
     ethr =  2.60E-07,  avg # of iterations =  1.5

     total cpu time spent up to now is       15.0 secs

     total energy              =    -635.73056626 Ry
     estimated scf accuracy    <       0.00074681 Ry

     total magnetization       =     2.00 Bohr mag/cell
     absolute magnetization    =     3.67 Bohr mag/cell

     iteration # 18     ecut=   100.00 Ry     beta= 0.10
     Davidson diagonalization with overlap
     ethr =  2.60E-07,  avg # of iterations =  1.0

     total cpu time spent up to now is       15.5 secs

     total energy              =    -635.73046938 Ry
     estimated scf accuracy    <       0.00086197 Ry

     total magnetization       =     2.00 Bohr mag/cell
     absolute magnetization    =     3.67 Bohr mag/cell

     iteration # 19     ecut=   100.00 Ry     beta= 0.10
     Davidson diagonalization with overlap
     ethr =  2.60E-07,  avg # of iterations =  4.0

     total cpu time spent up to now is       16.3 secs

     total energy              =    -635.73047657 Ry
     estimated scf accuracy    <       0.00042849 Ry

     total magnetization       =     2.00 Bohr mag/cell
     absolute magnetization    =     3.69 Bohr mag/cell

     iteration # 20     ecut=   100.00 Ry     beta= 0.10
     Davidson diagonalization with overlap
     ethr =  1.73E-07,  avg # of iterations =  3.0

     total cpu time spent up to now is       16.9 secs

     total energy              =    -635.73050376 Ry
     estimated scf accuracy    <       0.00021159 Ry

     total magnetization       =     2.00 Bohr mag/cell
     absolute magnetization    =     3.69 Bohr mag/cell

     iteration # 21     ecut=   100.00 Ry     beta= 0.10
     Davidson diagonalization with overlap
     ethr =  8.53E-08,  avg # of iterations =  2.0

     total cpu time spent up to now is       17.5 secs

     total energy              =    -635.73047910 Ry
     estimated scf accuracy    <       0.00020557 Ry

     total magnetization       =     2.00 Bohr mag/cell
     absolute magnetization    =     3.69 Bohr mag/cell

     iteration # 22     ecut=   100.00 Ry     beta= 0.10
     Davidson diagonalization with overlap
     ethr =  8.29E-08,  avg # of iterations =  5.0

     total cpu time spent up to now is       18.2 secs

     total energy              =    -635.73047735 Ry
     estimated scf accuracy    <       0.00009667 Ry

     total magnetization       =     2.00 Bohr mag/cell
     absolute magnetization    =     3.68 Bohr mag/cell

     iteration # 23     ecut=   100.00 Ry     beta= 0.10
     Davidson diagonalization with overlap
     ethr =  3.90E-08,  avg # of iterations =  9.0

     total cpu time spent up to now is       19.0 secs

     total energy              =    -635.73048933 Ry
     estimated scf accuracy    <       0.00001361 Ry

     total magnetization       =     2.00 Bohr mag/cell
     absolute magnetization    =     3.68 Bohr mag/cell

     iteration # 24     ecut=   100.00 Ry     beta= 0.10
     Davidson diagonalization with overlap
     ethr =  5.49E-09,  avg # of iterations =  5.5

     total cpu time spent up to now is       19.8 secs

     total energy              =    -635.73049226 Ry
     estimated scf accuracy    <       0.00000834 Ry

     total magnetization       =     2.00 Bohr mag/cell
     absolute magnetization    =     3.67 Bohr mag/cell

     iteration # 25     ecut=   100.00 Ry     beta= 0.10
     Davidson diagonalization with overlap
     ethr =  3.36E-09,  avg # of iterations =  2.0

     total cpu time spent up to now is       20.4 secs

     total energy              =    -635.73049264 Ry
     estimated scf accuracy    <       0.00000756 Ry

     total magnetization       =     2.00 Bohr mag/cell
     absolute magnetization    =     3.68 Bohr mag/cell

     iteration # 26     ecut=   100.00 Ry     beta= 0.10
     Davidson diagonalization with overlap
     ethr =  3.05E-09,  avg # of iterations =  8.5

     total cpu time spent up to now is       21.2 secs

     total energy              =    -635.73049259 Ry
     estimated scf accuracy    <       0.00000738 Ry

     total magnetization       =     2.00 Bohr mag/cell
     absolute magnetization    =     3.67 Bohr mag/cell

     iteration # 27     ecut=   100.00 Ry     beta= 0.10
     Davidson diagonalization with overlap
     ethr =  2.98E-09,  avg # of iterations =  6.5

     total cpu time spent up to now is       22.0 secs

     total energy              =    -635.73049312 Ry
     estimated scf accuracy    <       0.00000334 Ry

     total magnetization       =     2.00 Bohr mag/cell
     absolute magnetization    =     3.67 Bohr mag/cell

     iteration # 28     ecut=   100.00 Ry     beta= 0.10
     Davidson diagonalization with overlap
     ethr =  1.35E-09,  avg # of iterations =  4.5

     total cpu time spent up to now is       22.7 secs

     total energy              =    -635.73049308 Ry
     estimated scf accuracy    <       0.00000325 Ry

     total magnetization       =     2.00 Bohr mag/cell
     absolute magnetization    =     3.67 Bohr mag/cell

     iteration # 29     ecut=   100.00 Ry     beta= 0.10
     Davidson diagonalization with overlap
     ethr =  1.31E-09,  avg # of iterations =  7.0

     total cpu time spent up to now is       23.4 secs

     total energy              =    -635.73049274 Ry
     estimated scf accuracy    <       0.00000276 Ry

     total magnetization       =     2.00 Bohr mag/cell
     absolute magnetization    =     3.67 Bohr mag/cell

     iteration # 30     ecut=   100.00 Ry     beta= 0.10
     Davidson diagonalization with overlap
     ethr =  1.11E-09,  avg # of iterations =  2.0

     total cpu time spent up to now is       24.0 secs

     total energy              =    -635.73049284 Ry
     estimated scf accuracy    <       0.00000136 Ry

     total magnetization       =     2.00 Bohr mag/cell
     absolute magnetization    =     3.67 Bohr mag/cell

     iteration # 31     ecut=   100.00 Ry     beta= 0.10
     Davidson diagonalization with overlap
     ethr =  5.49E-10,  avg # of iterations =  3.5

     total cpu time spent up to now is       24.7 secs

     total energy              =    -635.73049268 Ry
     estimated scf accuracy    <       0.00000095 Ry

     total magnetization       =     2.00 Bohr mag/cell
     absolute magnetization    =     3.67 Bohr mag/cell

     iteration # 32     ecut=   100.00 Ry     beta= 0.10
     Davidson diagonalization with overlap
     ethr =  3.83E-10,  avg # of iterations =  7.5

     total cpu time spent up to now is       25.5 secs

     total energy              =    -635.73049289 Ry
     estimated scf accuracy    <       0.00000017 Ry

     total magnetization       =     2.00 Bohr mag/cell
     absolute magnetization    =     3.67 Bohr mag/cell

     iteration # 33     ecut=   100.00 Ry     beta= 0.10
     Davidson diagonalization with overlap
     ethr =  6.97E-11,  avg # of iterations =  3.5

     total cpu time spent up to now is       26.2 secs

     total energy              =    -635.73049286 Ry
     estimated scf accuracy    <       0.00000014 Ry

     total magnetization       =     2.00 Bohr mag/cell
     absolute magnetization    =     3.67 Bohr mag/cell

     iteration # 34     ecut=   100.00 Ry     beta= 0.10
     Davidson diagonalization with overlap
     ethr =  5.81E-11,  avg # of iterations =  7.0

     total cpu time spent up to now is       27.1 secs

     total energy              =    -635.73049289 Ry
     estimated scf accuracy    <       0.00000010 Ry

     total magnetization       =     2.00 Bohr mag/cell
     absolute magnetization    =     3.67 Bohr mag/cell

     iteration # 35     ecut=   100.00 Ry     beta= 0.10
     Davidson diagonalization with overlap
     ethr =  4.13E-11,  avg # of iterations =  3.5

     total cpu time spent up to now is       27.7 secs

     total energy              =    -635.73049288 Ry
     estimated scf accuracy    <       0.00000007 Ry

     total magnetization       =     2.00 Bohr mag/cell
     absolute magnetization    =     3.67 Bohr mag/cell

     iteration # 36     ecut=   100.00 Ry     beta= 0.10
     Davidson diagonalization with overlap
     ethr =  2.72E-11,  avg # of iterations =  7.5

     total cpu time spent up to now is       28.5 secs

     total energy              =    -635.73049288 Ry
     estimated scf accuracy    <       0.00000003 Ry

     total magnetization       =     2.00 Bohr mag/cell
     absolute magnetization    =     3.67 Bohr mag/cell

     iteration # 37     ecut=   100.00 Ry     beta= 0.10
     Davidson diagonalization with overlap
     ethr =  1.03E-11,  avg # of iterations =  7.0

     total cpu time spent up to now is       29.3 secs

     total energy              =    -635.73049289 Ry
     estimated scf accuracy    <          8.4E-09 Ry

     total magnetization       =     2.00 Bohr mag/cell
     absolute magnetization    =     3.67 Bohr mag/cell

     iteration # 38     ecut=   100.00 Ry     beta= 0.10
     Davidson diagonalization with overlap
     ethr =  3.38E-12,  avg # of iterations =  4.5

     total cpu time spent up to now is       30.0 secs

     total energy              =    -635.73049289 Ry
     estimated scf accuracy    <          7.5E-09 Ry

     total magnetization       =     2.00 Bohr mag/cell
     absolute magnetization    =     3.67 Bohr mag/cell

     iteration # 39     ecut=   100.00 Ry     beta= 0.10
     Davidson diagonalization with overlap
     ethr =  3.04E-12,  avg # of iterations =  7.0

     total cpu time spent up to now is       30.9 secs

     total energy              =    -635.73049289 Ry
     estimated scf accuracy    <       0.00000001 Ry

     total magnetization       =     2.00 Bohr mag/cell
     absolute magnetization    =     3.67 Bohr mag/cell

     iteration # 40     ecut=   100.00 Ry     beta= 0.10
     Davidson diagonalization with overlap
     ethr =  3.04E-12,  avg # of iterations =  2.5

     total cpu time spent up to now is       31.5 secs

     total energy              =    -635.73049289 Ry
     estimated scf accuracy    <          3.4E-09 Ry

     total magnetization       =     2.00 Bohr mag/cell
     absolute magnetization    =     3.67 Bohr mag/cell

     iteration # 41     ecut=   100.00 Ry     beta= 0.10
     Davidson diagonalization with overlap
     ethr =  1.35E-12,  avg # of iterations =  7.5

     total cpu time spent up to now is       32.4 secs

     total energy              =    -635.73049289 Ry
     estimated scf accuracy    <          6.4E-10 Ry

     total magnetization       =     2.00 Bohr mag/cell
     absolute magnetization    =     3.67 Bohr mag/cell

     iteration # 42     ecut=   100.00 Ry     beta= 0.10
     Davidson diagonalization with overlap
     ethr =  2.60E-13,  avg # of iterations =  7.0

     total cpu time spent up to now is       33.2 secs

     total energy              =    -635.73049289 Ry
     estimated scf accuracy    <          5.9E-10 Ry

     total magnetization       =     2.00 Bohr mag/cell
     absolute magnetization    =     3.67 Bohr mag/cell

     iteration # 43     ecut=   100.00 Ry     beta= 0.10
     Davidson diagonalization with overlap
     ethr =  2.39E-13,  avg # of iterations = 10.5

     total cpu time spent up to now is       34.2 secs

     total energy              =    -635.73049289 Ry
     estimated scf accuracy    <          3.6E-10 Ry

     total magnetization       =     2.00 Bohr mag/cell
     absolute magnetization    =     3.67 Bohr mag/cell

     iteration # 44     ecut=   100.00 Ry     beta= 0.10
     Davidson diagonalization with overlap
     ethr =  1.43E-13,  avg # of iterations =  5.0

     total cpu time spent up to now is       34.9 secs

     total energy              =    -635.73049289 Ry
     estimated scf accuracy    <          2.1E-10 Ry

     total magnetization       =     2.00 Bohr mag/cell
     absolute magnetization    =     3.67 Bohr mag/cell

     iteration # 45     ecut=   100.00 Ry     beta= 0.10
     Davidson diagonalization with overlap
     ethr =  1.00E-13,  avg # of iterations =  7.5

     total cpu time spent up to now is       35.6 secs

     total energy              =    -635.73049289 Ry
     estimated scf accuracy    <          1.1E-10 Ry

     total magnetization       =     2.00 Bohr mag/cell
     absolute magnetization    =     3.67 Bohr mag/cell

     iteration # 46     ecut=   100.00 Ry     beta= 0.10
     Davidson diagonalization with overlap
     ethr =  1.00E-13,  avg # of iterations =  7.0

     total cpu time spent up to now is       36.5 secs

     total energy              =    -635.73049289 Ry
     estimated scf accuracy    <          1.8E-10 Ry

     total magnetization       =     2.00 Bohr mag/cell
     absolute magnetization    =     3.67 Bohr mag/cell

     iteration # 47     ecut=   100.00 Ry     beta= 0.10
     Davidson diagonalization with overlap
     ethr =  1.00E-13,  avg # of iterations =  6.0

     total cpu time spent up to now is       37.2 secs

     total energy              =    -635.73049289 Ry
     estimated scf accuracy    <          1.2E-10 Ry

     total magnetization       =     2.00 Bohr mag/cell
     absolute magnetization    =     3.67 Bohr mag/cell

     iteration # 48     ecut=   100.00 Ry     beta= 0.10
     Davidson diagonalization with overlap
     ethr =  1.00E-13,  avg # of iterations =  1.5

     total cpu time spent up to now is       37.8 secs

     total energy              =    -635.73049289 Ry
     estimated scf accuracy    <          9.4E-11 Ry

     total magnetization       =     2.00 Bohr mag/cell
     absolute magnetization    =     3.67 Bohr mag/cell

     iteration # 49     ecut=   100.00 Ry     beta= 0.10
     Davidson diagonalization with overlap
     ethr =  1.00E-13,  avg # of iterations =  4.0

     total cpu time spent up to now is       38.4 secs

     total energy              =    -635.73049289 Ry
     estimated scf accuracy    <          5.8E-11 Ry

     total magnetization       =     2.00 Bohr mag/cell
     absolute magnetization    =     3.67 Bohr mag/cell

     iteration # 50     ecut=   100.00 Ry     beta= 0.10
     Davidson diagonalization with overlap
     ethr =  1.00E-13,  avg # of iterations =  2.0

     total cpu time spent up to now is       39.0 secs

     total energy              =    -635.73049289 Ry
     estimated scf accuracy    <          2.6E-11 Ry

     total magnetization       =     2.00 Bohr mag/cell
     absolute magnetization    =     3.67 Bohr mag/cell

     iteration # 51     ecut=   100.00 Ry     beta= 0.10
     Davidson diagonalization with overlap
     ethr =  1.00E-13,  avg # of iterations =  2.0

     total cpu time spent up to now is       39.6 secs

     total energy              =    -635.73049289 Ry
     estimated scf accuracy    <          7.8E-12 Ry

     total magnetization       =     2.00 Bohr mag/cell
     absolute magnetization    =     3.67 Bohr mag/cell

     iteration # 52     ecut=   100.00 Ry     beta= 0.10
     Davidson diagonalization with overlap
     ethr =  1.00E-13,  avg # of iterations =  1.5

     total cpu time spent up to now is       40.1 secs

     total energy              =    -635.73049289 Ry
     estimated scf accuracy    <          9.4E-12 Ry

     total magnetization       =     2.00 Bohr mag/cell
     absolute magnetization    =     3.67 Bohr mag/cell

     iteration # 53     ecut=   100.00 Ry     beta= 0.10
     Davidson diagonalization with overlap
     ethr =  1.00E-13,  avg # of iterations =  1.0

     total cpu time spent up to now is       40.7 secs

     total energy              =    -635.73049289 Ry
     estimated scf accuracy    <          8.2E-12 Ry

     total magnetization       =     2.00 Bohr mag/cell
     absolute magnetization    =     3.67 Bohr mag/cell

     iteration # 54     ecut=   100.00 Ry     beta= 0.10
     Davidson diagonalization with overlap
     ethr =  1.00E-13,  avg # of iterations =  1.0

     total cpu time spent up to now is       41.2 secs

     total energy              =    -635.73049289 Ry
     estimated scf accuracy    <          3.4E-12 Ry

     total magnetization       =     2.00 Bohr mag/cell
     absolute magnetization    =     3.67 Bohr mag/cell

     iteration # 55     ecut=   100.00 Ry     beta= 0.10
     Davidson diagonalization with overlap
     ethr =  1.00E-13,  avg # of iterations =  1.0

     total cpu time spent up to now is       41.7 secs

     total energy              =    -635.73049289 Ry
     estimated scf accuracy    <          1.1E-12 Ry

     total magnetization       =     2.00 Bohr mag/cell
     absolute magnetization    =     3.67 Bohr mag/cell

     iteration # 56     ecut=   100.00 Ry     beta= 0.10
     Davidson diagonalization with overlap
     ethr =  1.00E-13,  avg # of iterations =  1.0
 
     Magnetic moment per site  (integrated on atomic sphere of radius R)
     atom   1 (R=0.089)  charge=  0.9158  magn=  0.0008
     atom   2 (R=0.089)  charge=  0.9496  magn= -0.0033
     atom   3 (R=0.089)  charge=  0.9537  magn=  0.0033
     atom   4 (R=0.089)  charge=  0.9496  magn= -0.0033
     atom   5 (R=0.089)  charge=  0.9537  magn=  0.0033
     atom   6 (R=0.089)  charge=  0.9523  magn=  0.0033
     atom   7 (R=0.089)  charge=  0.9498  magn= -0.0017
     atom   8 (R=0.089)  charge=  0.9169  magn= -0.0124
     atom   9 (R=0.089)  charge=  0.9524  magn= -0.0011
     atom  10 (R=0.089)  charge=  0.9511  magn= -0.0011
     atom  11 (R=0.089)  charge=  0.9496  magn= -0.0002
     atom  12 (R=0.089)  charge=  0.9522  magn= -0.0029
     atom  13 (R=0.089)  charge=  0.9505  magn= -0.0031
     atom  14 (R=0.089)  charge=  0.9502  magn= -0.0036
     atom  15 (R=0.089)  charge=  0.9519  magn= -0.0026
     atom  16 (R=0.089)  charge=  0.9169  magn= -0.0124
     atom  17 (R=0.089)  charge=  0.9524  magn= -0.0011
     atom  18 (R=0.089)  charge=  0.9522  magn= -0.0029
     atom  19 (R=0.089)  charge=  0.9505  magn= -0.0031
     atom  20 (R=0.089)  charge=  0.9511  magn= -0.0011
     atom  21 (R=0.089)  charge=  0.9496  magn= -0.0002
     atom  22 (R=0.089)  charge=  0.9502  magn= -0.0036
     atom  23 (R=0.089)  charge=  0.9519  magn= -0.0026
     atom  24 (R=0.089)  charge=  0.9511  magn=  0.0005
     atom  25 (R=0.089)  charge=  0.9131  magn= -0.0039
     atom  26 (R=0.089)  charge=  0.9473  magn= -0.0003
     atom  27 (R=0.089)  charge=  0.9528  magn= -0.0033
     atom  28 (R=0.089)  charge=  0.9473  magn= -0.0003
     atom  29 (R=0.089)  charge=  0.9528  magn= -0.0033
     atom  30 (R=0.089)  charge=  0.9501  magn=  0.0008
     atom  31 (R=0.089)  charge=  0.9500  magn= -0.0022
     atom  32 (R=0.089)  charge=  2.7950  magn=  0.3699
     atom  33 (R=0.089)  charge=  2.9641  magn=  0.0271
     atom  34 (R=0.089)  charge=  2.9572  magn=  0.0034
     atom  35 (R=0.089)  charge=  2.9641  magn=  0.0271
     atom  36 (R=0.089)  charge=  2.9572  magn=  0.0034
     atom  37 (R=0.089)  charge=  2.9593  magn=  0.0011
     atom  38 (R=0.089)  charge=  2.9639  magn=  0.0293
     atom  39 (R=0.089)  charge=  2.9576  magn= -0.0055
     atom  40 (R=0.089)  charge=  2.9553  magn=  0.0193
     atom  41 (R=0.089)  charge=  2.7865  magn=  0.2963
     atom  42 (R=0.089)  charge=  2.9569  magn= -0.0043
     atom  43 (R=0.089)  charge=  2.9667  magn=  0.0184
     atom  44 (R=0.089)  charge=  2.9698  magn= -0.0016
     atom  45 (R=0.089)  charge=  2.9686  magn= -0.0019
     atom  46 (R=0.089)  charge=  2.9668  magn=  0.0236
     atom  47 (R=0.089)  charge=  2.9576  magn= -0.0055
     atom  48 (R=0.089)  charge=  2.9553  magn=  0.0193
     atom  49 (R=0.089)  charge=  2.9667  magn=  0.0184
     atom  50 (R=0.089)  charge=  2.9698  magn= -0.0016
     atom  51 (R=0.089)  charge=  2.7865  magn=  0.2963
     atom  52 (R=0.089)  charge=  2.9569  magn= -0.0043
     atom  53 (R=0.089)  charge=  2.9686  magn= -0.0019
     atom  54 (R=0.089)  charge=  2.9668  magn=  0.0236
     atom  55 (R=0.089)  charge=  2.9549  magn=  0.0058
     atom  56 (R=0.089)  charge=  2.9638  magn=  0.0303
     atom  57 (R=0.089)  charge=  2.9521  magn=  0.0223
     atom  58 (R=0.089)  charge=  2.9662  magn=  0.0038
     atom  59 (R=0.089)  charge=  2.9521  magn=  0.0223
     atom  60 (R=0.089)  charge=  2.9662  magn=  0.0038
     atom  61 (R=0.089)  charge=  2.9542  magn=  0.0061
     atom  62 (R=0.089)  charge=  2.7934  magn=  0.3758

     total cpu time spent up to now is       42.2 secs

     End of self-consistent calculation

 ------ SPIN UP ------------


          k = 0.0000 0.0000 0.0000 ( 38407 PWs)   bands (ev):

    -6.3325  -4.8806  -4.8772  -4.8371  -4.8106  -4.6570  -4.4823  -3.5223
    -3.5145  -3.4861  -3.4835  -3.4607  -3.4356  -3.4135  -3.3673  -3.3077
    -3.2935  -3.1302  -3.0278  -2.8146  -2.7721  -2.2774  -1.9529  -1.5291
    -1.5172  -1.3775  -1.2925  -1.2517  -1.0958  -0.9734  -0.9195   0.4766
     0.5571   0.6070   0.6103   1.1871   1.2013   1.2530   1.4044   1.8645
     1.8984   1.9179   1.9435   1.9786   2.5048   2.9186   2.9632   2.9709
     2.9999   3.0261   3.0639   3.0645   3.1391   3.1993   3.2214   3.9477
     3.9706   3.9977   4.0079   4.0462   4.0515   4.0939   4.2316   4.2501
     4.3159   4.3723   4.4001   4.4213   4.5149   4.5574   4.5874   4.5942
     4.6641   4.6668   4.7413   4.9201   4.9534   5.0437   5.0562   5.1317
     5.3409   5.5581   5.5876   5.6305   5.6419   5.7361   5.9253   5.9446
     6.0474   6.0896   6.1656   6.8447   6.9116   6.9426   6.9644   6.9673
     7.0202   7.0673   7.0696   7.1457   7.1562   7.3017   7.3336   7.3596
     7.5619   7.5731   7.6290   7.6476   7.6545   7.6654   7.6811   7.7246
     7.7591   7.7616   7.7809   7.8579   7.9537   7.9674   8.0546   8.4226
     8.5924   8.6005   9.4968   9.5356   9.5414

 ------ SPIN DOWN ----------


          k = 0.0000 0.0000 0.0000 ( 38407 PWs)   bands (ev):

    -6.3214  -4.8786  -4.8657  -4.8151  -4.7930  -4.6427  -4.4551  -3.5122
    -3.5048  -3.4781  -3.4774  -3.4481  -3.4361  -3.4083  -3.3222  -3.2523
    -3.2403  -3.1153  -2.9994  -2.7498  -2.6794  -2.1384  -1.6382  -1.5131
    -1.4804  -1.3571  -1.2784  -1.2348  -0.8704  -0.7447  -0.6145   0.5123
     0.5862   0.5878   0.5916   1.1909   1.2003   1.2658   1.3996   1.8757
     1.9013   1.9306   1.9508   1.9771   2.5643   2.9258   2.9684   2.9877
     3.0151   3.0499   3.0741   3.1272   3.1576   3.2455   3.2547   3.9519
     4.0004   4.0155   4.0327   4.0607   4.0828   4.1332   4.2177   4.2504
     4.3008   4.3826   4.4002   4.4113   4.5117   4.5571   4.6000   4.6078
     4.6708   4.6888   4.7815   4.9504   4.9682   5.1112   5.1146   5.2180
     5.4066   5.5857   5.6326   5.6666   5.7051   5.7556   5.9768   6.0257
     6.0967   6.1293   6.2277   6.8730   6.9299   6.9605   6.9852   7.0008
     7.0501   7.1245   7.1275   7.1878   7.2213   7.3734   7.4043   7.5784
     7.6306   7.6403   7.6718   7.6796   7.6803   7.7338   7.7570   7.7768
     7.7803   7.8132   7.9288   8.0407   8.0911   8.1716   8.1890   8.5550
     8.6720   8.6774  10.2662  10.3150  10.4419

     highest occupied, lowest unoccupied level (ev):    10.2662   10.3150

!    total energy              =    -635.73049289 Ry
     estimated scf accuracy    <          9.5E-13 Ry

     The total energy is the sum of the following terms:
     one-electron contribution =     146.73879398 Ry
     hartree contribution      =      80.53422459 Ry
     xc contribution           =    -232.63326194 Ry
     ewald contribution        =    -630.37024952 Ry

     total magnetization       =     2.00 Bohr mag/cell
     absolute magnetization    =     3.67 Bohr mag/cell

     convergence has been achieved in  56 iterations

     Forces acting on atoms (cartesian axes, Ry/au):

     atom    1 type  1   force =    -0.03670600   -0.03670600    0.03014095
     atom    2 type  1   force =    -0.02408361    0.00133409   -0.00967320
     atom    3 type  1   force =     0.00151228    0.01202346   -0.01111659
     atom    4 type  1   force =     0.00133409   -0.02408361   -0.00967320
     atom    5 type  1   force =     0.01202346    0.00151228   -0.01111659
     atom    6 type  1   force =     0.00262489    0.00262489   -0.00495454
     atom    7 type  1   force =     0.00145883    0.00145883    0.01562176
     atom    8 type  1   force =    -0.03838491    0.01491621   -0.05834268
     atom    9 type  1   force =    -0.00069656   -0.02926865    0.05410907
     atom   10 type  1   force =     0.00369671    0.01864739   -0.02772025
     atom   11 type  1   force =    -0.02239092    0.02723266    0.04008522
     atom   12 type  1   force =     0.01298087   -0.00649981    0.00403238
     atom   13 type  1   force =     0.00183052    0.02025457    0.01544902
     atom   14 type  1   force =    -0.00092030    0.00198208   -0.01996449
     atom   15 type  1   force =     0.00184798    0.00233393    0.01567960
     atom   16 type  1   force =     0.01491621   -0.03838491   -0.05834268
     atom   17 type  1   force =    -0.02926865   -0.00069656    0.05410907
     atom   18 type  1   force =    -0.00649981    0.01298087    0.00403238
     atom   19 type  1   force =     0.02025457    0.00183052    0.01544902
     atom   20 type  1   force =     0.01864739    0.00369671   -0.02772025
     atom   21 type  1   force =     0.02723266   -0.02239092    0.04008522
     atom   22 type  1   force =     0.00198208   -0.00092030   -0.01996449
     atom   23 type  1   force =     0.00233393    0.00184798    0.01567960
     atom   24 type  1   force =    -0.03076790   -0.03076790   -0.01611466
     atom   25 type  1   force =     0.02642682    0.02642682    0.01636760
     atom   26 type  1   force =    -0.00374612    0.03095211   -0.00725345
     atom   27 type  1   force =    -0.00119119   -0.01040414   -0.01185574
     atom   28 type  1   force =     0.03095211   -0.00374612   -0.00725345
     atom   29 type  1   force =    -0.01040414   -0.00119119   -0.01185574
     atom   30 type  1   force =     0.02740086    0.02740086   -0.00320206
     atom   31 type  1   force =     0.00171328    0.00171328    0.01620571
     atom   32 type  2   force =     0.04124633    0.04124633   -0.05166208
     atom   33 type  2   force =     0.00173453   -0.01069214    0.00746469
     atom   34 type  2   force =     0.00360116   -0.00258816   -0.00633778
     atom   35 type  2   force =    -0.01069214    0.00173453    0.00746469
     atom   36 type  2   force =    -0.00258816    0.00360116   -0.00633778
     atom   37 type  2   force =     0.00288296    0.00288296    0.00105946
     atom   38 type  2   force =    -0.00403360   -0.00403360   -0.00674465
     atom   39 type  2   force =     0.02378688   -0.00725107    0.01792423
     atom   40 type  2   force =    -0.00988794   -0.01370911   -0.01745677
     atom   41 type  2   force =     0.01992273   -0.01783014    0.06608792
     atom   42 type  2   force =     0.02205880    0.01217908   -0.03045918
     atom   43 type  2   force =    -0.00746912    0.00514901    0.00394548
     atom   44 type  2   force =    -0.00217177   -0.00089727   -0.00331614
     atom   45 type  2   force =    -0.00942255   -0.00470252    0.00875003
     atom   46 type  2   force =    -0.00456349   -0.00222087   -0.00552134
     atom   47 type  2   force =    -0.00725107    0.02378688    0.01792423
     atom   48 type  2   force =    -0.01370911   -0.00988794   -0.01745677
     atom   49 type  2   force =     0.00514901   -0.00746912    0.00394548
     atom   50 type  2   force =    -0.00089727   -0.00217177   -0.00331614
     atom   51 type  2   force =    -0.01783014    0.01992273    0.06608792
     atom   52 type  2   force =     0.01217908    0.02205880   -0.03045918
     atom   53 type  2   force =    -0.00470252   -0.00942255    0.00875003
     atom   54 type  2   force =    -0.00222087   -0.00456349   -0.00552134
     atom   55 type  2   force =    -0.01394770   -0.01394770   -0.01306219
     atom   56 type  2   force =     0.00284090    0.00284090   -0.00655830
     atom   57 type  2   force =    -0.01177697    0.00646409    0.02336721
     atom   58 type  2   force =     0.00493115   -0.00374357   -0.00842584
     atom   59 type  2   force =     0.00646409   -0.01177697    0.02336721
     atom   60 type  2   force =    -0.00374357    0.00493115   -0.00842584
     atom   61 type  2   force =     0.01378055    0.01378055   -0.00512506
     atom   62 type  2   force =    -0.03977959   -0.03977959   -0.05087474

     Total force =     0.273645     Total SCF correction =     0.000002

     BFGS Geometry Optimization
     Energy error            =      7.5E-02 Ry
     Gradient error          =      6.6E-02 Ry/Bohr

     number of scf cycles    =   1
     number of bfgs steps    =   0

     energy             new  =    -635.7304928898 Ry

     new trust radius        =       0.0779197689 bohr
     new conv_thr            =            1.0E-12 Ry


ATOMIC_POSITIONS (crystal)
Si              -0.0022173937       -0.0022173937        0.5018208017
Si              -0.0014548805        0.5000805917       -0.0005843538
Si               0.0000913561        0.5007263319        0.4993284517
Si               0.5000805917       -0.0014548805       -0.0005843538
Si               0.5007263319        0.0000913561        0.4993284517
Si               0.5001585685        0.5001585685       -0.0002993017
Si               0.5000881272        0.5000881272        0.5009437040
Si              -0.0023188161        0.2509010820        0.2464755439
Si              -0.0000420791        0.2482318932        0.7532687058
Si               0.0002233168        0.7511264805        0.2483254319
Si              -0.0013526257        0.7516451132        0.7524215307
Si               0.5007841687        0.2496073495        0.2502435941
Si               0.5001105812        0.2512235699        0.7509332684
Si               0.4999444048        0.7501197364        0.2487939538
Si               0.5001116355        0.7501409919        0.7509471977
Si               0.2509010820       -0.0023188161        0.2464755439
Si               0.2482318932       -0.0000420791        0.7532687058
Si               0.2496073495        0.5007841687        0.2502435941
Si               0.2512235699        0.5001105812        0.7509332684
Si               0.7511264805        0.0002233168        0.2483254319
Si               0.7516451132       -0.0013526257        0.7524215307
Si               0.7501197364        0.4999444048        0.2487939538
Si               0.7501409919        0.5001116355        0.7509471977
Si               0.2481413241        0.2481413241       -0.0009734798
Si               0.2515964327        0.2515964327        0.5009887596
Si               0.2497736985        0.7518698036       -0.0004381778
Si               0.2499280406        0.7493714903        0.4992837997
Si               0.7518698036        0.2497736985       -0.0004381778
Si               0.7493714903        0.2499280406        0.4992837997
Si               0.7516552741        0.7516552741       -0.0001934351
Si               0.7501034984        0.7501034984        0.5009789800
C                0.1274916731        0.1274916731        0.8718791158
C                0.1251047823        0.6243540921        0.3754509388
C                0.1252175443        0.6248436505        0.8746171373
C                0.6243540921        0.1251047823        0.3754509388
C                0.6248436505        0.1252175443        0.8746171373
C                0.6251741582        0.6251741582        0.3750640013
C                0.6247563318        0.6247563318        0.8745925589
C                0.1264369553        0.3745619659        0.1260827951
C                0.1244026739        0.3741718383        0.6239454440
C                0.1262035236        0.8739228892        0.1289923426
C                0.1263325626        0.8757357332        0.6231599743
C                0.6245487936        0.3753110493        0.1252383448
C                0.6248688046        0.3749457961        0.6247996735
C                0.6244307881        0.8747159228        0.1255285853
C                0.6247243213        0.8748658381        0.6246664585
C                0.3745619659        0.1264369553        0.1260827951
C                0.3741718383        0.1244026739        0.6239454440
C                0.3753110493        0.6245487936        0.1252383448
C                0.3749457961        0.6248688046        0.6247996735
C                0.8739228892        0.1262035236        0.1289923426
C                0.8757357332        0.1263325626        0.6231599743
C                0.8747159228        0.6244307881        0.1255285853
C                0.8748658381        0.6247243213        0.6246664585
C                0.3741574253        0.3741574253        0.3742109186
C                0.3751716178        0.3751716178        0.8746038160
C                0.3742885585        0.8753904932        0.3764116031
C                0.3752978887        0.8747738525        0.8744909988
C                0.8753904932        0.3742885585        0.3764116031
C                0.8747738525        0.3752978887        0.8744909988
C                0.8758324771        0.8758324771        0.3746903975
C                0.8725969324        0.8725969324        0.8719266787



     Writing config-only to output data dir ./tmp/sic3c.save/ :
     XML data file
     NEW-OLD atomic charge density approx. for the potential
     Generating pointlists ...
     new r_m :   0.0872 (alat units)  1.4432 (a.u.) for type    1
     new r_m :   0.0872 (alat units)  1.4432 (a.u.) for type    2

     total cpu time spent up to now is       42.6 secs

     Self-consistent Calculation

     iteration #  1     ecut=   100.00 Ry     beta= 0.10
     Davidson diagonalization with overlap
     ethr =  1.00E-06,  avg # of iterations = 16.0

     total cpu time spent up to now is       44.5 secs

     total energy              =    -635.78794423 Ry
     estimated scf accuracy    <       0.03217732 Ry

     total magnetization       =     2.00 Bohr mag/cell
     absolute magnetization    =     3.12 Bohr mag/cell

     iteration #  2     ecut=   100.00 Ry     beta= 0.10
     Davidson diagonalization with overlap
     ethr =  1.30E-05,  avg # of iterations =  1.5

     total cpu time spent up to now is       45.1 secs

     total energy              =    -635.77797617 Ry
     estimated scf accuracy    <       0.02765474 Ry

     total magnetization       =     2.00 Bohr mag/cell
     absolute magnetization    =     3.11 Bohr mag/cell

     iteration #  3     ecut=   100.00 Ry     beta= 0.10
     Davidson diagonalization with overlap
     ethr =  1.12E-05,  avg # of iterations = 12.0

     total cpu time spent up to now is       46.1 secs

     total energy              =    -635.78539584 Ry
     estimated scf accuracy    <       0.02029910 Ry

     total magnetization       =     2.00 Bohr mag/cell
     absolute magnetization    =     3.43 Bohr mag/cell

     iteration #  4     ecut=   100.00 Ry     beta= 0.10
     Davidson diagonalization with overlap
     ethr =  8.19E-06,  avg # of iterations =  1.5

     total cpu time spent up to now is       46.6 secs

     total energy              =    -635.78474643 Ry
     estimated scf accuracy    <       0.01738384 Ry

     total magnetization       =     2.00 Bohr mag/cell
     absolute magnetization    =     3.44 Bohr mag/cell

     iteration #  5     ecut=   100.00 Ry     beta= 0.10
     Davidson diagonalization with overlap
     ethr =  7.01E-06,  avg # of iterations =  2.5

     total cpu time spent up to now is       47.2 secs

     total energy              =    -635.78336460 Ry
     estimated scf accuracy    <       0.01301684 Ry

     total magnetization       =     2.00 Bohr mag/cell
     absolute magnetization    =     3.46 Bohr mag/cell

     iteration #  6     ecut=   100.00 Ry     beta= 0.10
     Davidson diagonalization with overlap
     ethr =  5.25E-06,  avg # of iterations = 12.5

     total cpu time spent up to now is       48.1 secs

     total energy              =    -635.78435380 Ry
     estimated scf accuracy    <       0.00139334 Ry

     total magnetization       =     2.00 Bohr mag/cell
     absolute magnetization    =     3.14 Bohr mag/cell

     iteration #  7     ecut=   100.00 Ry     beta= 0.10
     Davidson diagonalization with overlap
     ethr =  5.62E-07,  avg # of iterations =  8.5

     total cpu time spent up to now is       49.0 secs

     total energy              =    -635.78476881 Ry
     estimated scf accuracy    <       0.01274062 Ry

     total magnetization       =     2.00 Bohr mag/cell
     absolute magnetization    =     2.96 Bohr mag/cell

     iteration #  8     ecut=   100.00 Ry     beta= 0.10
     Davidson diagonalization with overlap
     ethr =  5.62E-07,  avg # of iterations =  2.5

     total cpu time spent up to now is       49.6 secs

     total energy              =    -635.78364701 Ry
     estimated scf accuracy    <       0.00745086 Ry

     total magnetization       =     2.00 Bohr mag/cell
     absolute magnetization    =     3.03 Bohr mag/cell

     iteration #  9     ecut=   100.00 Ry     beta= 0.10
     Davidson diagonalization with overlap
     ethr =  5.62E-07,  avg # of iterations =  8.5

     total cpu time spent up to now is       50.5 secs

     total energy              =    -635.78426284 Ry
     estimated scf accuracy    <       0.00043871 Ry

     total magnetization       =     2.00 Bohr mag/cell
     absolute magnetization    =     3.21 Bohr mag/cell

     iteration # 10     ecut=   100.00 Ry     beta= 0.10
     Davidson diagonalization with overlap
     ethr =  1.77E-07,  avg # of iterations =  4.0

     total cpu time spent up to now is       51.1 secs

     total energy              =    -635.78429546 Ry
     estimated scf accuracy    <       0.00020517 Ry

     total magnetization       =     2.00 Bohr mag/cell
     absolute magnetization    =     3.20 Bohr mag/cell

     iteration # 11     ecut=   100.00 Ry     beta= 0.10
     Davidson diagonalization with overlap
     ethr =  8.27E-08,  avg # of iterations =  2.0

     total cpu time spent up to now is       51.7 secs

     total energy              =    -635.78428479 Ry
     estimated scf accuracy    <       0.00017807 Ry

     total magnetization       =     2.00 Bohr mag/cell
     absolute magnetization    =     3.20 Bohr mag/cell

     iteration # 12     ecut=   100.00 Ry     beta= 0.10
     Davidson diagonalization with overlap
     ethr =  7.18E-08,  avg # of iterations =  5.5

     total cpu time spent up to now is       52.4 secs

     total energy              =    -635.78430116 Ry
     estimated scf accuracy    <       0.00008718 Ry

     total magnetization       =     2.00 Bohr mag/cell
     absolute magnetization    =     3.21 Bohr mag/cell

     iteration # 13     ecut=   100.00 Ry     beta= 0.10
     Davidson diagonalization with overlap
     ethr =  3.52E-08,  avg # of iterations =  2.0

     total cpu time spent up to now is       53.0 secs

     total energy              =    -635.78429980 Ry
     estimated scf accuracy    <       0.00004150 Ry

     total magnetization       =     2.00 Bohr mag/cell
     absolute magnetization    =     3.20 Bohr mag/cell

     iteration # 14     ecut=   100.00 Ry     beta= 0.10
     Davidson diagonalization with overlap
     ethr =  1.67E-08,  avg # of iterations =  7.0

     total cpu time spent up to now is       53.7 secs

     total energy              =    -635.78430108 Ry
     estimated scf accuracy    <       0.00000756 Ry

     total magnetization       =     2.00 Bohr mag/cell
     absolute magnetization    =     3.19 Bohr mag/cell

     iteration # 15     ecut=   100.00 Ry     beta= 0.10
     Davidson diagonalization with overlap
     ethr =  3.05E-09,  avg # of iterations =  5.5

     total cpu time spent up to now is       54.4 secs

     total energy              =    -635.78430156 Ry
     estimated scf accuracy    <       0.00000278 Ry

     total magnetization       =     2.00 Bohr mag/cell
     absolute magnetization    =     3.19 Bohr mag/cell

     iteration # 16     ecut=   100.00 Ry     beta= 0.10
     Davidson diagonalization with overlap
     ethr =  1.12E-09,  avg # of iterations =  8.0

     total cpu time spent up to now is       55.3 secs

     total energy              =    -635.78430239 Ry
     estimated scf accuracy    <       0.00000275 Ry

     total magnetization       =     2.00 Bohr mag/cell
     absolute magnetization    =     3.20 Bohr mag/cell

     iteration # 17     ecut=   100.00 Ry     beta= 0.10
     Davidson diagonalization with overlap
     ethr =  1.11E-09,  avg # of iterations =  4.0

     total cpu time spent up to now is       55.9 secs

     total energy              =    -635.78430240 Ry
     estimated scf accuracy    <       0.00000934 Ry

     total magnetization       =     2.00 Bohr mag/cell
     absolute magnetization    =     3.20 Bohr mag/cell

     iteration # 18     ecut=   100.00 Ry     beta= 0.10
     Davidson diagonalization with overlap
     ethr =  1.11E-09,  avg # of iterations =  2.0

     total cpu time spent up to now is       56.5 secs

     total energy              =    -635.78430179 Ry
     estimated scf accuracy    <       0.00000500 Ry

     total magnetization       =     2.00 Bohr mag/cell
     absolute magnetization    =     3.20 Bohr mag/cell

     iteration # 19     ecut=   100.00 Ry     beta= 0.10
     Davidson diagonalization with overlap
     ethr =  1.11E-09,  avg # of iterations =  5.0

     total cpu time spent up to now is       57.4 secs

     total energy              =    -635.78430238 Ry
     estimated scf accuracy    <       0.00000038 Ry

     total magnetization       =     2.00 Bohr mag/cell
     absolute magnetization    =     3.20 Bohr mag/cell

     iteration # 20     ecut=   100.00 Ry     beta= 0.10
     Davidson diagonalization with overlap
     ethr =  1.55E-10,  avg # of iterations =  6.5

     total cpu time spent up to now is       58.1 secs

     total energy              =    -635.78430237 Ry
     estimated scf accuracy    <       0.00000024 Ry

     total magnetization       =     2.00 Bohr mag/cell
     absolute magnetization    =     3.20 Bohr mag/cell

     iteration # 21     ecut=   100.00 Ry     beta= 0.10
     Davidson diagonalization with overlap
     ethr =  9.68E-11,  avg # of iterations =  5.0

     total cpu time spent up to now is       58.8 secs

     total energy              =    -635.78430240 Ry
     estimated scf accuracy    <       0.00000012 Ry

     total magnetization       =     2.00 Bohr mag/cell
     absolute magnetization    =     3.20 Bohr mag/cell

     iteration # 22     ecut=   100.00 Ry     beta= 0.10
     Davidson diagonalization with overlap
     ethr =  4.88E-11,  avg # of iterations =  2.0

     total cpu time spent up to now is       59.4 secs

     total energy              =    -635.78430237 Ry
     estimated scf accuracy    <       0.00000010 Ry

     total magnetization       =     2.00 Bohr mag/cell
     absolute magnetization    =     3.20 Bohr mag/cell

     iteration # 23     ecut=   100.00 Ry     beta= 0.10
     Davidson diagonalization with overlap
     ethr =  3.87E-11,  avg # of iterations =  8.5

     total cpu time spent up to now is       60.3 secs

     total energy              =    -635.78430241 Ry
     estimated scf accuracy    <       0.00000003 Ry

     total magnetization       =     2.00 Bohr mag/cell
     absolute magnetization    =     3.20 Bohr mag/cell

     iteration # 24     ecut=   100.00 Ry     beta= 0.10
     Davidson diagonalization with overlap
     ethr =  1.32E-11,  avg # of iterations =  5.0

     total cpu time spent up to now is       61.0 secs

     total energy              =    -635.78430241 Ry
     estimated scf accuracy    <       0.00000002 Ry

     total magnetization       =     2.00 Bohr mag/cell
     absolute magnetization    =     3.20 Bohr mag/cell

     iteration # 25     ecut=   100.00 Ry     beta= 0.10
     Davidson diagonalization with overlap
     ethr =  6.32E-12,  avg # of iterations =  2.5

     total cpu time spent up to now is       61.7 secs

     total energy              =    -635.78430241 Ry
     estimated scf accuracy    <       0.00000001 Ry

     total magnetization       =     2.00 Bohr mag/cell
     absolute magnetization    =     3.20 Bohr mag/cell

     iteration # 26     ecut=   100.00 Ry     beta= 0.10
     Davidson diagonalization with overlap
     ethr =  4.49E-12,  avg # of iterations =  4.0

     total cpu time spent up to now is       62.3 secs

     total energy              =    -635.78430241 Ry
     estimated scf accuracy    <          5.3E-09 Ry

     total magnetization       =     2.00 Bohr mag/cell
     absolute magnetization    =     3.20 Bohr mag/cell

     iteration # 27     ecut=   100.00 Ry     beta= 0.10
     Davidson diagonalization with overlap
     ethr =  2.14E-12,  avg # of iterations =  7.5

     total cpu time spent up to now is       63.2 secs

     total energy              =    -635.78430241 Ry
     estimated scf accuracy    <          3.6E-09 Ry

     total magnetization       =     2.00 Bohr mag/cell
     absolute magnetization    =     3.20 Bohr mag/cell

     iteration # 28     ecut=   100.00 Ry     beta= 0.10
     Davidson diagonalization with overlap
     ethr =  1.46E-12,  avg # of iterations =  3.5

     total cpu time spent up to now is       63.8 secs

     total energy              =    -635.78430241 Ry
     estimated scf accuracy    <          2.7E-09 Ry

     total magnetization       =     2.00 Bohr mag/cell
     absolute magnetization    =     3.20 Bohr mag/cell

     iteration # 29     ecut=   100.00 Ry     beta= 0.10
     Davidson diagonalization with overlap
     ethr =  1.09E-12,  avg # of iterations =  3.5

     total cpu time spent up to now is       64.5 secs

     total energy              =    -635.78430241 Ry
     estimated scf accuracy    <          9.3E-10 Ry

     total magnetization       =     2.00 Bohr mag/cell
     absolute magnetization    =     3.20 Bohr mag/cell

     iteration # 30     ecut=   100.00 Ry     beta= 0.10
     Davidson diagonalization with overlap
     ethr =  3.77E-13,  avg # of iterations =  5.0

     total cpu time spent up to now is       65.1 secs

     total energy              =    -635.78430241 Ry
     estimated scf accuracy    <          4.8E-10 Ry

     total magnetization       =     2.00 Bohr mag/cell
     absolute magnetization    =     3.20 Bohr mag/cell

     iteration # 31     ecut=   100.00 Ry     beta= 0.10
     Davidson diagonalization with overlap
     ethr =  1.92E-13,  avg # of iterations =  3.0

     total cpu time spent up to now is       65.8 secs

     total energy              =    -635.78430241 Ry
     estimated scf accuracy    <          2.0E-10 Ry

     total magnetization       =     2.00 Bohr mag/cell
     absolute magnetization    =     3.20 Bohr mag/cell

     iteration # 32     ecut=   100.00 Ry     beta= 0.10
     Davidson diagonalization with overlap
     ethr =  1.00E-13,  avg # of iterations =  5.0

     total cpu time spent up to now is       66.6 secs

     total energy              =    -635.78430241 Ry
     estimated scf accuracy    <          3.4E-10 Ry

     total magnetization       =     2.00 Bohr mag/cell
     absolute magnetization    =     3.20 Bohr mag/cell

     iteration # 33     ecut=   100.00 Ry     beta= 0.10
     Davidson diagonalization with overlap
     ethr =  1.00E-13,  avg # of iterations =  5.0

     total cpu time spent up to now is       67.4 secs

     total energy              =    -635.78430241 Ry
     estimated scf accuracy    <          4.1E-11 Ry

     total magnetization       =     2.00 Bohr mag/cell
     absolute magnetization    =     3.20 Bohr mag/cell

     iteration # 34     ecut=   100.00 Ry     beta= 0.10
     Davidson diagonalization with overlap
     ethr =  1.00E-13,  avg # of iterations =  1.0

     total cpu time spent up to now is       67.9 secs

     total energy              =    -635.78430241 Ry
     estimated scf accuracy    <          1.8E-11 Ry

     total magnetization       =     2.00 Bohr mag/cell
     absolute magnetization    =     3.20 Bohr mag/cell

     iteration # 35     ecut=   100.00 Ry     beta= 0.10
     Davidson diagonalization with overlap
     ethr =  1.00E-13,  avg # of iterations =  1.0

     total cpu time spent up to now is       68.5 secs

     total energy              =    -635.78430241 Ry
     estimated scf accuracy    <          9.9E-12 Ry

     total magnetization       =     2.00 Bohr mag/cell
     absolute magnetization    =     3.20 Bohr mag/cell

     iteration # 36     ecut=   100.00 Ry     beta= 0.10
     Davidson diagonalization with overlap
     ethr =  1.00E-13,  avg # of iterations =  1.0

     total cpu time spent up to now is       69.0 secs

     total energy              =    -635.78430241 Ry
     estimated scf accuracy    <          6.2E-12 Ry

     total magnetization       =     2.00 Bohr mag/cell
     absolute magnetization    =     3.20 Bohr mag/cell

     iteration # 37     ecut=   100.00 Ry     beta= 0.10
     Davidson diagonalization with overlap
     ethr =  1.00E-13,  avg # of iterations =  1.0

     total cpu time spent up to now is       69.6 secs

     total energy              =    -635.78430241 Ry
     estimated scf accuracy    <          4.2E-12 Ry

     total magnetization       =     2.00 Bohr mag/cell
     absolute magnetization    =     3.20 Bohr mag/cell

     iteration # 38     ecut=   100.00 Ry     beta= 0.10
     Davidson diagonalization with overlap
     ethr =  1.00E-13,  avg # of iterations =  1.0

     total cpu time spent up to now is       70.1 secs

     total energy              =    -635.78430241 Ry
     estimated scf accuracy    <          2.8E-12 Ry

     total magnetization       =     2.00 Bohr mag/cell
     absolute magnetization    =     3.20 Bohr mag/cell

     iteration # 39     ecut=   100.00 Ry     beta= 0.10
     Davidson diagonalization with overlap
     ethr =  1.00E-13,  avg # of iterations =  1.0

     total cpu time spent up to now is       70.6 secs

     total energy              =    -635.78430241 Ry
     estimated scf accuracy    <          2.7E-12 Ry

     total magnetization       =     2.00 Bohr mag/cell
     absolute magnetization    =     3.20 Bohr mag/cell

     iteration # 40     ecut=   100.00 Ry     beta= 0.10
     Davidson diagonalization with overlap
     ethr =  1.00E-13,  avg # of iterations =  1.0

     total cpu time spent up to now is       71.2 secs

     total energy              =    -635.78430241 Ry
     estimated scf accuracy    <          1.6E-12 Ry

     total magnetization       =     2.00 Bohr mag/cell
     absolute magnetization    =     3.20 Bohr mag/cell

     iteration # 41     ecut=   100.00 Ry     beta= 0.10
     Davidson diagonalization with overlap
     ethr =  1.00E-13,  avg # of iterations =  1.0
 
     Magnetic moment per site  (integrated on atomic sphere of radius R)
     atom   1 (R=0.087)  charge=  0.8484  magn=  0.0006
     atom   2 (R=0.087)  charge=  0.8671  magn= -0.0024
     atom   3 (R=0.087)  charge=  0.8762  magn=  0.0032
     atom   4 (R=0.087)  charge=  0.8671  magn= -0.0024
     atom   5 (R=0.087)  charge=  0.8762  magn=  0.0032
     atom   6 (R=0.087)  charge=  0.8737  magn=  0.0034
     atom   7 (R=0.087)  charge=  0.8687  magn= -0.0011
     atom   8 (R=0.087)  charge=  0.8494  magn= -0.0060
     atom   9 (R=0.087)  charge=  0.8746  magn= -0.0014
     atom  10 (R=0.087)  charge=  0.8723  magn= -0.0007
     atom  11 (R=0.087)  charge=  0.8694  magn= -0.0006
     atom  12 (R=0.087)  charge=  0.8747  magn= -0.0019
     atom  13 (R=0.087)  charge=  0.8699  magn= -0.0019
     atom  14 (R=0.087)  charge=  0.8700  magn= -0.0023
     atom  15 (R=0.087)  charge=  0.8728  magn= -0.0018
     atom  16 (R=0.087)  charge=  0.8494  magn= -0.0060
     atom  17 (R=0.087)  charge=  0.8746  magn= -0.0014
     atom  18 (R=0.087)  charge=  0.8747  magn= -0.0019
     atom  19 (R=0.087)  charge=  0.8699  magn= -0.0019
     atom  20 (R=0.087)  charge=  0.8723  magn= -0.0007
     atom  21 (R=0.087)  charge=  0.8694  magn= -0.0006
     atom  22 (R=0.087)  charge=  0.8700  magn= -0.0023
     atom  23 (R=0.087)  charge=  0.8728  magn= -0.0018
     atom  24 (R=0.087)  charge=  0.8726  magn=  0.0003
     atom  25 (R=0.087)  charge=  0.8450  magn= -0.0017
     atom  26 (R=0.087)  charge=  0.8648  magn= -0.0009
     atom  27 (R=0.087)  charge=  0.8753  magn= -0.0022
     atom  28 (R=0.087)  charge=  0.8648  magn= -0.0009
     atom  29 (R=0.087)  charge=  0.8753  magn= -0.0022
     atom  30 (R=0.087)  charge=  0.8692  magn=  0.0004
     atom  31 (R=0.087)  charge=  0.8699  magn= -0.0014
     atom  32 (R=0.087)  charge=  2.7291  magn=  0.3448
     atom  33 (R=0.087)  charge=  2.8389  magn=  0.0251
     atom  34 (R=0.087)  charge=  2.8229  magn=  0.0043
     atom  35 (R=0.087)  charge=  2.8389  magn=  0.0251
     atom  36 (R=0.087)  charge=  2.8229  magn=  0.0043
     atom  37 (R=0.087)  charge=  2.8208  magn=  0.0021
     atom  38 (R=0.087)  charge=  2.8340  magn=  0.0299
     atom  39 (R=0.087)  charge=  2.8253  magn= -0.0019
     atom  40 (R=0.087)  charge=  2.8112  magn=  0.0238
     atom  41 (R=0.087)  charge=  2.7107  magn=  0.2284
     atom  42 (R=0.087)  charge=  2.8219  magn= -0.0034
     atom  43 (R=0.087)  charge=  2.8342  magn=  0.0140
     atom  44 (R=0.087)  charge=  2.8398  magn=  0.0001
     atom  45 (R=0.087)  charge=  2.8432  magn= -0.0013
     atom  46 (R=0.087)  charge=  2.8319  magn=  0.0257
     atom  47 (R=0.087)  charge=  2.8253  magn= -0.0019
     atom  48 (R=0.087)  charge=  2.8112  magn=  0.0238
     atom  49 (R=0.087)  charge=  2.8342  magn=  0.0140
     atom  50 (R=0.087)  charge=  2.8398  magn=  0.0001
     atom  51 (R=0.087)  charge=  2.7107  magn=  0.2284
     atom  52 (R=0.087)  charge=  2.8219  magn= -0.0034
     atom  53 (R=0.087)  charge=  2.8432  magn= -0.0013
     atom  54 (R=0.087)  charge=  2.8319  magn=  0.0257
     atom  55 (R=0.087)  charge=  2.8259  magn=  0.0047
     atom  56 (R=0.087)  charge=  2.8378  magn=  0.0299
     atom  57 (R=0.087)  charge=  2.8202  magn=  0.0240
     atom  58 (R=0.087)  charge=  2.8501  magn=  0.0033
     atom  59 (R=0.087)  charge=  2.8202  magn=  0.0240
     atom  60 (R=0.087)  charge=  2.8501  magn=  0.0033
     atom  61 (R=0.087)  charge=  2.8265  magn=  0.0045
     atom  62 (R=0.087)  charge=  2.7264  magn=  0.3499

     total cpu time spent up to now is       71.7 secs

     End of self-consistent calculation

 ------ SPIN UP ------------


          k = 0.0000 0.0000 0.0000 ( 38407 PWs)   bands (ev):

    -6.3293  -4.8689  -4.8673  -4.8255  -4.8008  -4.6967  -4.4932  -3.5140
    -3.4868  -3.4719  -3.4647  -3.4640  -3.4347  -3.4263  -3.3990  -3.3351
    -3.2853  -3.1241  -3.0412  -2.8711  -2.8282  -2.3206  -2.0911  -1.5114
    -1.4727  -1.3816  -1.2974  -1.2499  -1.1603  -1.1089  -1.0067   0.4661
     0.5760   0.5820   0.6066   1.1870   1.1950   1.2705   1.5440   1.8559
     1.9005   1.9044   1.9257   1.9570   2.5096   2.9268   2.9370   2.9590
     2.9974   3.0122   3.0404   3.0648   3.1650   3.2078   3.2236   3.9784
     3.9951   4.0122   4.0125   4.0355   4.0662   4.0903   4.2182   4.2555
     4.2956   4.3369   4.3829   4.3835   4.5177   4.5568   4.5613   4.5903
     4.6218   4.6342   4.7273   4.8980   4.9216   5.0273   5.0497   5.1073
     5.3603   5.5292   5.5936   5.6377   5.6543   5.7274   5.9326   5.9561
     6.0527   6.0706   6.1718   6.9116   6.9281   6.9297   6.9508   6.9882
     7.0095   7.0182   7.0453   7.1222   7.1317   7.2994   7.3089   7.4286
     7.4670   7.6055   7.6365   7.6655   7.6695   7.6963   7.7028   7.7403
     7.7473   7.7554   7.7869   7.8092   7.8656   7.8749   7.8877   8.3681
     8.5276   8.5468   9.3600   9.5153   9.6587

 ------ SPIN DOWN ----------


          k = 0.0000 0.0000 0.0000 ( 38407 PWs)   bands (ev):

    -6.3117  -4.8620  -4.8481  -4.7960  -4.7827  -4.6717  -4.4597  -3.4990
    -3.4816  -3.4504  -3.4500  -3.4367  -3.4289  -3.4177  -3.3456  -3.2641
    -3.2310  -3.1068  -3.0080  -2.7857  -2.7768  -2.1801  -1.7935  -1.4754
    -1.4507  -1.3572  -1.2784  -1.2328  -0.9859  -0.8369  -0.8247   0.4973
     0.5690   0.5804   0.6262   1.1962   1.2000   1.2853   1.5510   1.8714
     1.9070   1.9197   1.9406   1.9612   2.5639   2.9352   2.9461   2.9837
     3.0107   3.0329   3.0576   3.1255   3.1945   3.2502   3.2589   3.9879
     4.0198   4.0236   4.0501   4.0616   4.1035   4.1346   4.2123   4.2606
     4.2909   4.3459   4.3700   4.4082   4.5262   4.5655   4.5822   4.5986
     4.6349   4.6534   4.7743   4.9302   4.9443   5.0830   5.1152   5.1932
     5.4249   5.5567   5.6357   5.6687   5.7176   5.7477   5.9946   6.0130
     6.1073   6.1202   6.2378   6.9326   6.9520   6.9701   6.9740   7.0220
     7.0577   7.0768   7.1200   7.1546   7.2074   7.3389   7.3455   7.5475
     7.6148   7.6576   7.6852   7.7061   7.7196   7.7401   7.7565   7.7649
     7.7965   7.8394   7.8645   7.9258   7.9610   7.9656   8.1600   8.4871
     8.6006   8.6109  10.2750  10.3453  10.4165

     highest occupied, lowest unoccupied level (ev):    10.2750   10.3453

!    total energy              =    -635.78430241 Ry
     estimated scf accuracy    <          5.1E-13 Ry

     The total energy is the sum of the following terms:
     one-electron contribution =     145.30801514 Ry
     hartree contribution      =      81.23054205 Ry
     xc contribution           =    -232.75824244 Ry
     ewald contribution        =    -629.56461715 Ry

     total magnetization       =     2.00 Bohr mag/cell
     absolute magnetization    =     3.20 Bohr mag/cell

     convergence has been achieved in  41 iterations

     Forces acting on atoms (cartesian axes, Ry/au):

     atom    1 type  1   force =    -0.02338544   -0.02338544    0.02179100
     atom    2 type  1   force =    -0.00378966    0.00081281    0.00021772
     atom    3 type  1   force =     0.00061627    0.00307787   -0.00068836
     atom    4 type  1   force =     0.00081281   -0.00378966    0.00021772
     atom    5 type  1   force =     0.00307787    0.00061627   -0.00068836
     atom    6 type  1   force =     0.00003706    0.00003706    0.00630703
     atom    7 type  1   force =     0.00007130    0.00007130    0.00482395
     atom    8 type  1   force =    -0.03248047    0.01283250   -0.03836033
     atom    9 type  1   force =    -0.00201545   -0.00954636    0.00984318
     atom   10 type  1   force =     0.00742044    0.00916234   -0.00912841
     atom   11 type  1   force =    -0.00065969    0.00763072    0.00477257
     atom   12 type  1   force =     0.00741166    0.00047398    0.00143402
     atom   13 type  1   force =    -0.00141764    0.00479086   -0.00242967
     atom   14 type  1   force =    -0.00461533   -0.00177872   -0.00359982
     atom   15 type  1   force =     0.00232203   -0.00073136   -0.00335473
     atom   16 type  1   force =     0.01283250   -0.03248047   -0.03836033
     atom   17 type  1   force =    -0.00954636   -0.00201545    0.00984318
     atom   18 type  1   force =     0.00047398    0.00741166    0.00143402
     atom   19 type  1   force =     0.00479086   -0.00141764   -0.00242967
     atom   20 type  1   force =     0.00916234    0.00742044   -0.00912841
     atom   21 type  1   force =     0.00763072   -0.00065969    0.00477257
     atom   22 type  1   force =    -0.00177872   -0.00461533   -0.00359982
     atom   23 type  1   force =    -0.00073136    0.00232203   -0.00335473
     atom   24 type  1   force =    -0.00972572   -0.00972572   -0.00055118
     atom   25 type  1   force =     0.01803898    0.01803898    0.02127678
     atom   26 type  1   force =    -0.00808880    0.01449992    0.01085693
     atom   27 type  1   force =    -0.00097375   -0.00654181   -0.00455979
     atom   28 type  1   force =     0.01449992   -0.00808880    0.01085693
     atom   29 type  1   force =    -0.00654181   -0.00097375   -0.00455979
     atom   30 type  1   force =     0.00848616    0.00848616    0.00407854
     atom   31 type  1   force =     0.00119907    0.00119907    0.00696299
     atom   32 type  2   force =     0.02616255    0.02616255   -0.02839194
     atom   33 type  2   force =    -0.00427730   -0.00470654   -0.00025010
     atom   34 type  2   force =    -0.00142203    0.00281667    0.00033178
     atom   35 type  2   force =    -0.00470654   -0.00427730   -0.00025010
     atom   36 type  2   force =     0.00281667   -0.00142203    0.00033178
     atom   37 type  2   force =     0.00074616    0.00074616   -0.00080165
     atom   38 type  2   force =     0.00153149    0.00153149    0.00194583
     atom   39 type  2   force =     0.00481620   -0.00287132    0.00106800
     atom   40 type  2   force =    -0.00612123   -0.00644706   -0.00133975
     atom   41 type  2   force =     0.02376229   -0.01997958    0.03437890
     atom   42 type  2   force =     0.00518820    0.00448632   -0.00392608
     atom   43 type  2   force =    -0.00148266    0.00214399   -0.00585676
     atom   44 type  2   force =     0.00112006    0.00103804    0.00246357
     atom   45 type  2   force =     0.00085750   -0.00095187   -0.00256841
     atom   46 type  2   force =     0.00027268    0.00048548    0.00459643
     atom   47 type  2   force =    -0.00287132    0.00481620    0.00106800
     atom   48 type  2   force =    -0.00644706   -0.00612123   -0.00133975
     atom   49 type  2   force =     0.00214399   -0.00148266   -0.00585676
     atom   50 type  2   force =     0.00103804    0.00112006    0.00246357
     atom   51 type  2   force =    -0.01997958    0.02376229    0.03437890
     atom   52 type  2   force =     0.00448632    0.00518820   -0.00392608
     atom   53 type  2   force =    -0.00095187    0.00085750   -0.00256841
     atom   54 type  2   force =     0.00048548    0.00027268    0.00459643
     atom   55 type  2   force =    -0.00335984   -0.00335984   -0.00640824
     atom   56 type  2   force =    -0.00014826   -0.00014826    0.00312273
     atom   57 type  2   force =    -0.00007649    0.00638860    0.00608109
     atom   58 type  2   force =    -0.00066051    0.00066708   -0.00081214
     atom   59 type  2   force =     0.00638860   -0.00007649    0.00608109
     atom   60 type  2   force =     0.00066708   -0.00066051   -0.00081214
     atom   61 type  2   force =     0.00413368    0.00413368   -0.00528387
     atom   62 type  2   force =    -0.02724611   -0.02724611   -0.02721167

     Total force =     0.142725     Total SCF correction =     0.000001
     Energy error            =      5.4E-02 Ry
     Gradient error          =      3.8E-02 Ry/Bohr

     number of scf cycles    =   2
     number of bfgs steps    =   1

     energy             old  =    -635.7304928898 Ry
     energy             new  =    -635.7843024097 Ry

[...]
     ethr =  1.00E-13,  avg # of iterations =  1.0

     total cpu time spent up to now is      303.5 secs

     total energy              =    -635.83484869 Ry
     estimated scf accuracy    <          2.8E-14 Ry

     total magnetization       =     2.00 Bohr mag/cell
     absolute magnetization    =     2.21 Bohr mag/cell

     iteration # 27     ecut=   100.00 Ry     beta= 0.10
     Davidson diagonalization with overlap
     ethr =  1.00E-13,  avg # of iterations =  1.0

     total cpu time spent up to now is      304.0 secs

     total energy              =    -635.83484869 Ry
     estimated scf accuracy    <          1.7E-14 Ry

     total magnetization       =     2.00 Bohr mag/cell
     absolute magnetization    =     2.21 Bohr mag/cell

     iteration # 28     ecut=   100.00 Ry     beta= 0.10
     Davidson diagonalization with overlap
     ethr =  1.00E-13,  avg # of iterations =  1.0

     total cpu time spent up to now is      304.5 secs

     total energy              =    -635.83484869 Ry
     estimated scf accuracy    <          1.2E-14 Ry

     total magnetization       =     2.00 Bohr mag/cell
     absolute magnetization    =     2.21 Bohr mag/cell

     iteration # 29     ecut=   100.00 Ry     beta= 0.10
     Davidson diagonalization with overlap
     ethr =  1.00E-13,  avg # of iterations =  1.0
 
     Magnetic moment per site  (integrated on atomic sphere of radius R)
     atom   1 (R=0.083)  charge=  0.7137  magn=  0.0019
     atom   2 (R=0.083)  charge=  0.7234  magn=  0.0001
     atom   3 (R=0.083)  charge=  0.7349  magn=  0.0033
     atom   4 (R=0.083)  charge=  0.7234  magn=  0.0001
     atom   5 (R=0.083)  charge=  0.7349  magn=  0.0033
     atom   6 (R=0.083)  charge=  0.7350  magn=  0.0031
     atom   7 (R=0.083)  charge=  0.7233  magn=  0.0000
     atom   8 (R=0.083)  charge=  0.7277  magn= -0.0000
     atom   9 (R=0.083)  charge=  0.7318  magn= -0.0004
     atom  10 (R=0.083)  charge=  0.7290  magn=  0.0008
     atom  11 (R=0.083)  charge=  0.7301  magn=  0.0001
     atom  12 (R=0.083)  charge=  0.7255  magn= -0.0002
     atom  13 (R=0.083)  charge=  0.7245  magn= -0.0004
     atom  14 (R=0.083)  charge=  0.7240  magn= -0.0002
     atom  15 (R=0.083)  charge=  0.7262  magn= -0.0005
     atom  16 (R=0.083)  charge=  0.7277  magn= -0.0000
     atom  17 (R=0.083)  charge=  0.7318  magn= -0.0004
     atom  18 (R=0.083)  charge=  0.7255  magn= -0.0002
     atom  19 (R=0.083)  charge=  0.7245  magn= -0.0004
     atom  20 (R=0.083)  charge=  0.7290  magn=  0.0008
     atom  21 (R=0.083)  charge=  0.7301  magn=  0.0001
     atom  22 (R=0.083)  charge=  0.7240  magn= -0.0002
     atom  23 (R=0.083)  charge=  0.7262  magn= -0.0005
     atom  24 (R=0.083)  charge=  0.7297  magn=  0.0002
     atom  25 (R=0.083)  charge=  0.7136  magn=  0.0003
     atom  26 (R=0.083)  charge=  0.7279  magn=  0.0000
     atom  27 (R=0.083)  charge=  0.7260  magn= -0.0004
     atom  28 (R=0.083)  charge=  0.7279  magn=  0.0000
     atom  29 (R=0.083)  charge=  0.7260  magn= -0.0004
     atom  30 (R=0.083)  charge=  0.7301  magn= -0.0002
     atom  31 (R=0.083)  charge=  0.7225  magn= -0.0004
     atom  32 (R=0.083)  charge=  2.5357  magn=  0.3215
     atom  33 (R=0.083)  charge=  2.5912  magn=  0.0140
     atom  34 (R=0.083)  charge=  2.5763  magn=  0.0038
     atom  35 (R=0.083)  charge=  2.5912  magn=  0.0140
     atom  36 (R=0.083)  charge=  2.5763  magn=  0.0038
     atom  37 (R=0.083)  charge=  2.5711  magn=  0.0007
     atom  38 (R=0.083)  charge=  2.5820  magn=  0.0297
     atom  39 (R=0.083)  charge=  2.5764  magn=  0.0030
     atom  40 (R=0.083)  charge=  2.5725  magn=  0.0269
     atom  41 (R=0.083)  charge=  2.5715  magn=  0.0881
     atom  42 (R=0.083)  charge=  2.5766  magn=  0.0006
     atom  43 (R=0.083)  charge=  2.5929  magn=  0.0012
     atom  44 (R=0.083)  charge=  2.5877  magn=  0.0013
     atom  45 (R=0.083)  charge=  2.5875  magn=  0.0019
     atom  46 (R=0.083)  charge=  2.5859  magn=  0.0273
     atom  47 (R=0.083)  charge=  2.5764  magn=  0.0030
     atom  48 (R=0.083)  charge=  2.5725  magn=  0.0269
     atom  49 (R=0.083)  charge=  2.5929  magn=  0.0012
     atom  50 (R=0.083)  charge=  2.5877  magn=  0.0013
     atom  51 (R=0.083)  charge=  2.5715  magn=  0.0881
     atom  52 (R=0.083)  charge=  2.5766  magn=  0.0006
     atom  53 (R=0.083)  charge=  2.5875  magn=  0.0019
     atom  54 (R=0.083)  charge=  2.5859  magn=  0.0273
     atom  55 (R=0.083)  charge=  2.5686  magn=  0.0017
     atom  56 (R=0.083)  charge=  2.5843  magn=  0.0283
     atom  57 (R=0.083)  charge=  2.5776  magn=  0.0143
     atom  58 (R=0.083)  charge=  2.5896  magn=  0.0018
     atom  59 (R=0.083)  charge=  2.5776  magn=  0.0143
     atom  60 (R=0.083)  charge=  2.5896  magn=  0.0018
     atom  61 (R=0.083)  charge=  2.5682  magn=  0.0013
     atom  62 (R=0.083)  charge=  2.5307  magn=  0.3296

     total cpu time spent up to now is      305.0 secs

     End of self-consistent calculation

 ------ SPIN UP ------------


          k = 0.0000 0.0000 0.0000 ( 38407 PWs)   bands (ev):

    -6.4046  -4.9597  -4.9546  -4.9215  -4.8780  -4.7488  -4.5545  -3.5950
    -3.5899  -3.5645  -3.5457  -3.5451  -3.5012  -3.4671  -3.4634  -3.3960
    -3.3809  -3.1656  -3.0738  -2.9261  -2.9075  -2.3423  -2.1560  -1.5685
    -1.5584  -1.4172  -1.3621  -1.3058  -1.2203  -1.1842  -1.0708   0.3393
     0.5419   0.5509   0.6022   1.1333   1.1376   1.2067   1.7485   1.7872
     1.8339   1.8373   1.8773   1.9038   2.5002   2.7788   2.8162   2.8753
     2.9052   2.9182   3.0041   3.0196   3.1319   3.1967   3.1985   3.8750
     3.9142   3.9274   3.9850   3.9923   4.0222   4.0622   4.1494   4.1744
     4.1761   4.2975   4.3242   4.3844   4.4032   4.4599   4.5183   4.5202
     4.5606   4.6116   4.7985   4.8923   4.9053   5.0403   5.0668   5.1218
     5.3855   5.4543   5.4923   5.5610   5.6060   5.6953   5.9532   5.9537
     6.0197   6.0415   6.1519   6.8063   6.8286   6.8513   6.8519   6.8957
     6.9350   6.9632   7.0138   7.0863   7.2524   7.3127   7.4176   7.4981
     7.4990   7.5387   7.5854   7.6009   7.6402   7.6702   7.6811   7.6931
     7.7051   7.7203   7.7303   7.7437   7.8159   7.8611   7.9274   8.3483
     8.4754   8.4990   9.3267   9.6051   9.8219

 ------ SPIN DOWN ----------


          k = 0.0000 0.0000 0.0000 ( 38407 PWs)   bands (ev):

    -6.3772  -4.9434  -4.9269  -4.8738  -4.8626  -4.7052  -4.5181  -3.5727
    -3.5697  -3.5317  -3.5303  -3.4989  -3.4886  -3.4503  -3.3922  -3.3546
    -3.3341  -3.1424  -3.0392  -2.8816  -2.8437  -2.2413  -1.8867  -1.5403
    -1.5251  -1.3918  -1.3437  -1.2930  -1.0837  -0.9985  -0.9103   0.3703
     0.5696   0.5709   0.6243   1.1488   1.1535   1.2254   1.7757   1.8074
     1.8459   1.8614   1.9053   1.9152   2.5489   2.7941   2.8443   2.8963
     2.9337   2.9436   3.0248   3.0770   3.1757   3.2218   3.2547   3.8988
     3.9425   3.9472   3.9998   4.0541   4.0702   4.0884   4.1684   4.1994
     4.2084   4.3002   4.3302   4.4101   4.4378   4.4705   4.5379   4.5405
     4.5768   4.6372   4.8407   4.9351   4.9428   5.0880   5.1345   5.1906
     5.4410   5.4787   5.5277   5.5879   5.6815   5.7165   5.9827   6.0272
     6.0595   6.0945   6.2226   6.8330   6.8702   6.8708   6.9065   6.9300
     6.9833   6.9975   7.0811   7.1056   7.2920   7.3363   7.4727   7.5155
     7.5527   7.6179   7.6233   7.6623   7.6793   7.6838   7.7011   7.7363
     7.7446   7.7677   7.7724   7.7947   7.8892   7.9049   8.3466   8.4736
     8.5387   8.5518  10.0674  10.2901  10.4870

     highest occupied, lowest unoccupied level (ev):    10.0674   10.2901

!    total energy              =    -635.83484869 Ry
     estimated scf accuracy    <          6.4E-15 Ry

     The total energy is the sum of the following terms:
     one-electron contribution =     135.35796552 Ry
     hartree contribution      =      86.07022075 Ry
     xc contribution           =    -233.21821613 Ry
     ewald contribution        =    -624.04481882 Ry

     total magnetization       =     2.00 Bohr mag/cell
     absolute magnetization    =     2.21 Bohr mag/cell

     convergence has been achieved in  29 iterations

     Forces acting on atoms (cartesian axes, Ry/au):

     atom    1 type  1   force =     0.00081864    0.00081864   -0.00018425
     atom    2 type  1   force =     0.00032469    0.00004632    0.00007618
     atom    3 type  1   force =    -0.00010368   -0.00012437   -0.00014576
     atom    4 type  1   force =     0.00004632    0.00032469    0.00007618
     atom    5 type  1   force =    -0.00012437   -0.00010368   -0.00014576
     atom    6 type  1   force =     0.00000326    0.00000326    0.00001956
     atom    7 type  1   force =    -0.00019179   -0.00019179   -0.00039819
     atom    8 type  1   force =    -0.00049218    0.00013064   -0.00035658
     atom    9 type  1   force =     0.00000074    0.00051028   -0.00024263
     atom   10 type  1   force =     0.00020087    0.00032235   -0.00011282
     atom   11 type  1   force =     0.00072267    0.00019786   -0.00039506
     atom   12 type  1   force =     0.00000852   -0.00031199    0.00000666
     atom   13 type  1   force =    -0.00045272   -0.00087980    0.00005420
     atom   14 type  1   force =    -0.00033267    0.00007936    0.00042794
     atom   15 type  1   force =     0.00038759    0.00016166    0.00026775
     atom   16 type  1   force =     0.00013064   -0.00049218   -0.00035658
     atom   17 type  1   force =     0.00051028    0.00000074   -0.00024263
     atom   18 type  1   force =    -0.00031199    0.00000852    0.00000666
     atom   19 type  1   force =    -0.00087980   -0.00045272    0.00005420
     atom   20 type  1   force =     0.00032235    0.00020087   -0.00011282
     atom   21 type  1   force =     0.00019786    0.00072267   -0.00039506
     atom   22 type  1   force =     0.00007936   -0.00033267    0.00042794
     atom   23 type  1   force =     0.00016166    0.00038759    0.00026775
     atom   24 type  1   force =     0.00035394    0.00035394    0.00093511
     atom   25 type  1   force =    -0.00068150   -0.00068150   -0.00005217
     atom   26 type  1   force =    -0.00039785   -0.00041738   -0.00033082
     atom   27 type  1   force =    -0.00025951    0.00049390    0.00000851
     atom   28 type  1   force =    -0.00041738   -0.00039785   -0.00033082
     atom   29 type  1   force =     0.00049390   -0.00025951    0.00000851
     atom   30 type  1   force =    -0.00053749   -0.00053749    0.00030979
     atom   31 type  1   force =     0.00070514    0.00070514   -0.00087045
     atom   32 type  2   force =     0.00019458    0.00019458    0.00051060
     atom   33 type  2   force =    -0.00047125    0.00059970   -0.00016801
     atom   34 type  2   force =     0.00011507    0.00011934    0.00015267
     atom   35 type  2   force =     0.00059970   -0.00047125   -0.00016801
     atom   36 type  2   force =     0.00011934    0.00011507    0.00015267
     atom   37 type  2   force =    -0.00027542   -0.00027542    0.00027694
     atom   38 type  2   force =     0.00024936    0.00024936    0.00070452
     atom   39 type  2   force =    -0.00037899   -0.00005924    0.00031486
     atom   40 type  2   force =    -0.00052364   -0.00048721   -0.00012148
     atom   41 type  2   force =    -0.00003993    0.00011424   -0.00084321
     atom   42 type  2   force =    -0.00005270    0.00004379    0.00063865
     atom   43 type  2   force =     0.00036243   -0.00066385   -0.00027677
     atom   44 type  2   force =    -0.00027810   -0.00001511   -0.00024149
     atom   45 type  2   force =     0.00002102    0.00011467    0.00047580
     atom   46 type  2   force =     0.00067553    0.00070441   -0.00016232
     atom   47 type  2   force =    -0.00005924   -0.00037899    0.00031486
     atom   48 type  2   force =    -0.00048721   -0.00052364   -0.00012148
     atom   49 type  2   force =    -0.00066385    0.00036243   -0.00027677
     atom   50 type  2   force =    -0.00001511   -0.00027810   -0.00024149
     atom   51 type  2   force =     0.00011424   -0.00003993   -0.00084321
     atom   52 type  2   force =     0.00004379   -0.00005270    0.00063865
     atom   53 type  2   force =     0.00011467    0.00002102    0.00047580
     atom   54 type  2   force =     0.00070441    0.00067553   -0.00016232
     atom   55 type  2   force =    -0.00002011   -0.00002011    0.00047352
     atom   56 type  2   force =    -0.00053096   -0.00053096    0.00052853
     atom   57 type  2   force =    -0.00039407    0.00052891   -0.00032168
     atom   58 type  2   force =    -0.00026468   -0.00026633    0.00045425
     atom   59 type  2   force =     0.00052891   -0.00039407   -0.00032168
     atom   60 type  2   force =    -0.00026633   -0.00026468    0.00045425
     atom   61 type  2   force =     0.00059580    0.00059580   -0.00047637
     atom   62 type  2   force =    -0.00000276   -0.00000276   -0.00009479

     Total force =     0.005334     Total SCF correction =     0.000000
     Energy error            =      5.8E-05 Ry
     Gradient error          =      9.4E-04 Ry/Bohr

     bfgs converged in  11 scf cycles and  10 bfgs steps
     (criteria: energy <  1.0E-04 Ry, force <  1.0E-03 Ry/Bohr)

     End of BFGS Geometry Optimization

     Final energy             =    -635.8348486914 Ry

     File ./tmp/sic3c.bfgs deleted, as requested
Begin final coordinates

ATOMIC_POSITIONS (crystal)
Si              -0.0076043730       -0.0076043730        0.5081226369
Si              -0.0015094090        0.5013780727       -0.0008287975
Si               0.0001497985        0.5013833850        0.5003387059
Si               0.5013780727       -0.0015094090       -0.0008287975
Si               0.5013833850        0.0001497985        0.5003387059
Si               0.5002768536        0.5002768536        0.0008663885
Si               0.5004374831        0.5004374831        0.5015740422
Si              -0.0149751816        0.2593947001        0.2358521393
Si              -0.0009669679        0.2492747351        0.7529374565
Si               0.0026664350        0.7514811035        0.2474572830
Si              -0.0006952436        0.7496243308        0.7517862573
Si               0.5020487249        0.2496302763        0.2499279520
Si               0.5004156724        0.2516055723        0.7514193974
Si               0.5004135530        0.7492702709        0.2481990194
Si               0.5005539774        0.7498178169        0.7508015066
Si               0.2593947001       -0.0149751816        0.2358521393
Si               0.2492747351       -0.0009669679        0.7529374565
Si               0.2496302763        0.5020487249        0.2499279520
Si               0.2516055723        0.5004156724        0.7514193974
Si               0.7514811035        0.0026664350        0.2474572830
Si               0.7496243308       -0.0006952436        0.7517862573
Si               0.7492702709        0.5004135530        0.2481990194
Si               0.7498178169        0.5005539774        0.7508015066
Si               0.2487057107        0.2487057107        0.0000388025
Si               0.2567256952        0.2567256952        0.5086450462
Si               0.2494147784        0.7519549846        0.0017893494
Si               0.2500014774        0.7485030474        0.4996755396
Si               0.7519549846        0.2494147784        0.0017893494
Si               0.7485030474        0.2500014774        0.4996755396
Si               0.7509899608        0.7509899608        0.0012562135
Si               0.7502070773        0.7502070773        0.5016739588
C                0.1376682685        0.1376682685        0.8622789013
C                0.1247681371        0.6238899914        0.3767279127
C                0.1258894669        0.6248196196        0.8748740839
C                0.6238899914        0.1247681371        0.3767279127
C                0.6248196196        0.1258894669        0.8748740839
C                0.6250776193        0.6250776193        0.3752634412
C                0.6242699197        0.6242699197        0.8754515297
C                0.1258739699        0.3756537563        0.1255308002
C                0.1235177993        0.3753434726        0.6245689527
C                0.1333343957        0.8642231887        0.1331667360
C                0.1264708130        0.8746944045        0.6249674604
C                0.6238218565        0.3763243130        0.1244597320
C                0.6248657163        0.3753168875        0.6253734898
C                0.6250592154        0.8749903053        0.1256530804
C                0.6242636064        0.8749395386        0.6246767820
C                0.3756537563        0.1258739699        0.1255308002
C                0.3753434726        0.1235177993        0.6245689527
C                0.3763243130        0.6238218565        0.1244597320
C                0.3753168875        0.6248657163        0.6253734898
C                0.8642231887        0.1333343957        0.1331667360
C                0.8746944045        0.1264708130        0.6249674604
C                0.8749903053        0.6250592154        0.1256530804
C                0.8749395386        0.6242636064        0.6246767820
C                0.3740793031        0.3740793031        0.3738472270
C                0.3759103032        0.3759103032        0.8757802540
C                0.3765263247        0.8752393150        0.3781037614
C                0.3756653177        0.8743609846        0.8748085250
C                0.8752393150        0.3765263247        0.3781037614
C                0.8743609846        0.3756653177        0.8748085250
C                0.8756732240        0.8756732240        0.3735758130
C                0.8618946478        0.8618946478        0.8620914948
End final coordinates



     Writing all to output data dir ./tmp/sic3c.save/ :
     XML data file, charge density, pseudopotentials, collected wavefunctions
 
     init_run     :      0.55s CPU      1.41s WALL (       1 calls)
     electrons    :    270.73s CPU    295.05s WALL (      11 calls)
     update_pot   :      0.53s CPU      0.53s WALL (      10 calls)
     forces       :      2.36s CPU      2.43s WALL (      11 calls)

     Called by init_run:
     wfcinit      :      0.35s CPU      0.84s WALL (       1 calls)
     potinit      :      0.05s CPU      0.11s WALL (       1 calls)
     hinit0       :      0.09s CPU      0.39s WALL (       1 calls)

     Called by electrons:
     c_bands      :    214.37s CPU    216.18s WALL (     403 calls)
     sum_band     :     24.27s CPU     24.58s WALL (     403 calls)
     v_of_rho     :     17.50s CPU     17.69s WALL (     411 calls)
     mix_rho      :     13.61s CPU     13.72s WALL (     403 calls)

     Called by c_bands:
     init_us_2    :     10.23s CPU     10.39s WALL (     818 calls)
     regterg      :    182.71s CPU    184.16s WALL (     403 calls)

     Called by *egterg:
     rdiaghg      :     20.41s CPU     20.87s WALL (    1751 calls)
     h_psi        :    134.50s CPU    135.78s WALL (    1765 calls)
     g_psi        :      0.22s CPU      0.22s WALL (    1361 calls)

     Called by h_psi:
     h_psi:calbec :     28.90s CPU     29.22s WALL (    1765 calls)
     vloc_psi     :     80.25s CPU     81.04s WALL (    1765 calls)
                                        0.00s GPU  (    1765 calls)
     add_vuspsi   :     24.72s CPU     24.87s WALL (    1765 calls)

     General routines
     calbec       :     30.07s CPU     30.41s WALL (    1809 calls)
     fft          :      8.71s CPU      9.10s WALL (    5499 calls)
     ffts         :      7.99s CPU      8.04s WALL (    7542 calls)
     fftw         :     90.14s CPU     91.04s WALL (  146475 calls)
 
     Parallel routines
 
     PWSCF        :   4m35.81s CPU   5m 6.64s WALL

 
   This run was terminated on:  18:13:31  30Jun2026            

=------------------------------------------------------------------------------=
   JOB DONE.
=------------------------------------------------------------------------------=
